! TOUCHSTONE file generated by CST MICROWAVE STUDIO
! Date and time: Wed Oct 05 21:55:14 2016
! Project name: tomas_icrh_linear_2016-plasma-Rdiel=200.cst
! Header version: 2015
! Port assignment regex: !\s*Touchstone port\s*([0-9]+)\s*=\s*CST MWS port\s*([0-9]+)\s*\(\"(.*)\"\)(\s*mode\s*([0-9]+))?.*
! Touchstone port assignment:
! Touchstone port 1 = CST MWS port 1 ("")
! Touchstone port 2 = CST MWS port 2 ("")
# MHZ S MA R 50
0                       0.999994             180     2.97059e-006        -130.146     2.97051e-006        -130.147         0.999995        -179.999  
0.05                    0.999994         179.903      0.000541563          90.161      0.000541563          90.161         0.999994         179.939  
0.1                     0.999993         179.806       0.00108539         89.9798       0.00108539         89.9798         0.999993         179.878  
0.15                    0.999992         179.709       0.00162905         89.8665       0.00162905         89.8665         0.999992         179.817  
0.2                      0.99999         179.612       0.00217259         89.7702       0.00217259         89.7702         0.999991         179.756  
0.25                    0.999989         179.515       0.00271602         89.6806       0.00271602         89.6806         0.999989         179.695  
0.3                     0.999986         179.418       0.00325934         89.5944       0.00325934         89.5944         0.999987         179.633  
0.35                    0.999984         179.321       0.00380254         89.5101       0.00380254         89.5101         0.999985         179.572  
0.4                     0.999981         179.224       0.00434562         89.4271       0.00434562         89.4271         0.999982         179.511  
0.45                    0.999979         179.127       0.00488859         89.3448       0.00488859         89.3448          0.99998          179.45  
0.5                     0.999975          179.03       0.00543143         89.2632       0.00543143         89.2632         0.999976         179.389  
0.55                    0.999972         178.934       0.00597416          89.182       0.00597416          89.182         0.999973         179.328  
0.6                     0.999968         178.837       0.00651676         89.1011       0.00651676         89.1011         0.999969         179.267  
0.65                    0.999964          178.74       0.00705924         89.0205       0.00705924         89.0205         0.999965         179.206  
0.7                     0.999959         178.643        0.0076016         88.9401        0.0076016         88.9401         0.999961         179.145  
0.75                    0.999954         178.547       0.00814384         88.8598       0.00814384         88.8598         0.999956         179.084  
0.8                     0.999949          178.45       0.00868595         88.7797       0.00868595         88.7797         0.999951         179.022  
0.85                    0.999944         178.353       0.00922793         88.6997       0.00922793         88.6997         0.999946         178.961  
0.9                     0.999938         178.256       0.00976979         88.6198       0.00976979         88.6198          0.99994           178.9  
0.95                    0.999932          178.16        0.0103115           88.54        0.0103115           88.54         0.999935         178.839  
1                       0.999926         178.063        0.0108531         88.4603        0.0108531         88.4603         0.999928         178.778  
1.05                     0.99992         177.967        0.0113946         88.3806        0.0113946         88.3806         0.999922         178.717  
1.1                     0.999913          177.87        0.0119359          88.301        0.0119359          88.301         0.999915         178.657  
1.15                    0.999906         177.773        0.0124771         88.2215        0.0124771         88.2215         0.999908         178.596  
1.2                     0.999898         177.677        0.0130182          88.142        0.0130182          88.142         0.999901         178.535  
1.25                     0.99989          177.58        0.0135592         88.0626        0.0135592         88.0626         0.999893         178.474  
1.3                     0.999882         177.484           0.0141         87.9832           0.0141         87.9832         0.999885         178.413  
1.35                    0.999874         177.387        0.0146406         87.9038        0.0146406         87.9038         0.999877         178.352  
1.4                     0.999865         177.291        0.0151812         87.8245        0.0151812         87.8245         0.999869         178.291  
1.45                    0.999856         177.194        0.0157216         87.7453        0.0157216         87.7453          0.99986          178.23  
1.5                     0.999847         177.098        0.0162618          87.666        0.0162618          87.666         0.999851         178.169  
1.55                    0.999838         177.002         0.016802         87.5868         0.016802         87.5868         0.999842         178.108  
1.6                     0.999828         176.905        0.0173419         87.5077        0.0173419         87.5077         0.999832         178.048  
1.65                    0.999818         176.809        0.0178818         87.4285        0.0178818         87.4285         0.999822         177.987  
1.7                     0.999807         176.713        0.0184215         87.3494        0.0184215         87.3494         0.999812         177.926  
1.75                    0.999797         176.616         0.018961         87.2704         0.018961         87.2704         0.999801         177.865  
1.8                     0.999786          176.52        0.0195005         87.1913        0.0195005         87.1913          0.99979         177.805  
1.85                    0.999774         176.424        0.0200397         87.1123        0.0200397         87.1123         0.999779         177.744  
1.9                     0.999763         176.328        0.0205789         87.0333        0.0205789         87.0333         0.999768         177.683  
1.95                    0.999751         176.231        0.0211178         86.9544        0.0211178         86.9544         0.999756         177.622  
2                       0.999739         176.135        0.0216567         86.8754        0.0216567         86.8754         0.999744         177.562  
2.05                    0.999726         176.039        0.0221953         86.7965        0.0221953         86.7965         0.999732         177.501  
2.1                     0.999714         175.943        0.0227339         86.7177        0.0227339         86.7177         0.999719          177.44  
2.15                      0.9997         175.847        0.0232723         86.6388        0.0232723         86.6388         0.999706          177.38  
2.2                     0.999687         175.751        0.0238105           86.56        0.0238105           86.56         0.999693         177.319  
2.25                    0.999674         175.655        0.0243486         86.4812        0.0243486         86.4812          0.99968         177.258  
2.3                      0.99966         175.559        0.0248865         86.4024        0.0248865         86.4024         0.999666         177.198  
2.35                    0.999645         175.462        0.0254243         86.3237        0.0254243         86.3237         0.999652         177.137  
2.4                     0.999631         175.366        0.0259619         86.2449        0.0259619         86.2449         0.999638         177.076  
2.45                    0.999616          175.27        0.0264994         86.1662        0.0264994         86.1662         0.999623         177.016  
2.5                     0.999601         175.175        0.0270367         86.0875        0.0270367         86.0875         0.999608         176.955  
2.55                    0.999586         175.079        0.0275738         86.0089        0.0275738         86.0089         0.999593         176.895  
2.6                      0.99957         174.983        0.0281108         85.9302        0.0281108         85.9302         0.999578         176.834  
2.65                    0.999554         174.887        0.0286477         85.8516        0.0286477         85.8516         0.999562         176.774  
2.7                     0.999538         174.791        0.0291843          85.773        0.0291843          85.773         0.999546         176.713  
2.75                    0.999521         174.695        0.0297209         85.6945        0.0297209         85.6945          0.99953         176.653  
2.8                     0.999505         174.599        0.0302572         85.6159        0.0302572         85.6159         0.999513         176.592  
2.85                    0.999487         174.503        0.0307934         85.5374        0.0307934         85.5374         0.999496         176.532  
2.9                      0.99947         174.408        0.0313294         85.4589        0.0313294         85.4589         0.999479         176.471  
2.95                    0.999452         174.312        0.0318653         85.3804        0.0318653         85.3804         0.999462         176.411  
3                       0.999434         174.216         0.032401          85.302         0.032401          85.302         0.999444          176.35  
3.05                    0.999416         174.121        0.0329366         85.2236        0.0329366         85.2236         0.999426          176.29  
3.1                     0.999398         174.025        0.0334719         85.1452        0.0334719         85.1452         0.999408          176.23  
3.15                    0.999379         173.929        0.0340071         85.0668        0.0340071         85.0668         0.999389         176.169  
3.2                      0.99936         173.834        0.0345422         84.9884        0.0345422         84.9884          0.99937         176.109  
3.25                     0.99934         173.738         0.035077         84.9101         0.035077         84.9101         0.999351         176.049  
3.3                     0.999321         173.642        0.0356117         84.8317        0.0356117         84.8317         0.999332         175.988  
3.35                    0.999301         173.547        0.0361463         84.7534        0.0361463         84.7534         0.999312         175.928  
3.4                      0.99928         173.451        0.0366806         84.6752        0.0366806         84.6752         0.999292         175.868  
3.45                     0.99926         173.356        0.0372148         84.5969        0.0372148         84.5969         0.999272         175.807  
3.5                     0.999239          173.26        0.0377488         84.5187        0.0377488         84.5187         0.999251         175.747  
3.55                    0.999218         173.165        0.0382826         84.4405        0.0382826         84.4405          0.99923         175.687  
3.6                     0.999197         173.069        0.0388163         84.3623        0.0388163         84.3623         0.999209         175.627  
3.65                    0.999175         172.974        0.0393498         84.2841        0.0393498         84.2841         0.999188         175.566  
3.7                     0.999153         172.879        0.0398831          84.206        0.0398831          84.206         0.999166         175.506  
3.75                    0.999131         172.783        0.0404162         84.1279        0.0404162         84.1279         0.999144         175.446  
3.8                     0.999108         172.688        0.0409492         84.0498        0.0409492         84.0498         0.999122         175.386  
3.85                    0.999085         172.593         0.041482         83.9717         0.041482         83.9717           0.9991         175.326  
3.9                     0.999062         172.497        0.0420146         83.8936        0.0420146         83.8936         0.999077         175.265  
3.95                    0.999039         172.402         0.042547         83.8156         0.042547         83.8156         0.999054         175.205  
4                       0.999015         172.307        0.0430792         83.7376        0.0430792         83.7376          0.99903         175.145  
4.05                    0.998991         172.212        0.0436113         83.6596        0.0436113         83.6596         0.999007         175.085  
4.1                     0.998967         172.117        0.0441432         83.5816        0.0441432         83.5816         0.998983         175.025  
4.15                    0.998943         172.021        0.0446748         83.5037        0.0446748         83.5037         0.998959         174.965  
4.2                     0.998918         171.926        0.0452063         83.4257        0.0452063         83.4257         0.998934         174.905  
4.25                    0.998893          171.83         0.045742         83.3472         0.045742         83.3472         0.998909         174.844  
4.3                     0.998867         171.734        0.0462776         83.2687        0.0462776         83.2687         0.998884         174.784  
4.35                    0.998841         171.639        0.0468131         83.1901        0.0468131         83.1901         0.998859         174.723  
4.4                     0.998815         171.543        0.0473486         83.1116        0.0473486         83.1116         0.998833         174.663  
4.45                    0.998789         171.447        0.0478839         83.0331        0.0478839         83.0331         0.998807         174.602  
4.5                     0.998762         171.351        0.0484192         82.9546        0.0484192         82.9546         0.998781         174.542  
4.55                    0.998735         171.255        0.0489543         82.8761        0.0489543         82.8761         0.998754         174.481  
4.6                     0.998708         171.159        0.0494894         82.7976        0.0494894         82.7976         0.998727         174.421  
4.65                     0.99868         171.064        0.0500244         82.7191        0.0500244         82.7191           0.9987          174.36  
4.7                     0.998652         170.968        0.0505593         82.6406        0.0505593         82.6406         0.998672           174.3  
4.75                    0.998624         170.872        0.0510941         82.5621        0.0510941         82.5621         0.998645         174.239  
4.8                     0.998596         170.776        0.0516288         82.4837        0.0516288         82.4837         0.998617         174.179  
4.85                    0.998567          170.68        0.0521634         82.4052        0.0521634         82.4052         0.998588         174.118  
4.9                     0.998538         170.585        0.0526979         82.3268        0.0526979         82.3268          0.99856         174.058  
4.95                    0.998509         170.489        0.0532323         82.2483        0.0532323         82.2483         0.998531         173.997  
5                       0.998479         170.393        0.0537666         82.1699        0.0537666         82.1699         0.998502         173.937  
5.05                    0.998449         170.297        0.0543008         82.0914        0.0543008         82.0914         0.998472         173.876  
5.1                     0.998419         170.201        0.0548349          82.013        0.0548349          82.013         0.998442         173.816  
5.15                    0.998389         170.106        0.0553689         81.9346        0.0553689         81.9346         0.998412         173.756  
5.2                     0.998358          170.01        0.0559029         81.8562        0.0559029         81.8562         0.998382         173.695  
5.25                    0.998327         169.914        0.0564367         81.7778        0.0564367         81.7778         0.998351         173.635  
5.3                     0.998295         169.819        0.0569704         81.6994        0.0569704         81.6994         0.998321         173.574  
5.35                    0.998264         169.723         0.057504          81.621         0.057504          81.621         0.998289         173.514  
5.4                     0.998232         169.627        0.0580375         81.5426        0.0580375         81.5426         0.998258         173.453  
5.45                      0.9982         169.531        0.0585709         81.4642        0.0585709         81.4642         0.998226         173.393  
5.5                     0.998167         169.436        0.0591042         81.3859        0.0591042         81.3859         0.998194         173.333  
5.55                    0.998135          169.34        0.0596373         81.3075        0.0596373         81.3075         0.998162         173.272  
5.6                     0.998101         169.244        0.0601704         81.2291        0.0601704         81.2291          0.99813         173.212  
5.65                    0.998068         169.149        0.0607034         81.1508        0.0607034         81.1508         0.998097         173.151  
5.7                     0.998035         169.053        0.0612362         81.0724        0.0612362         81.0724         0.998064         173.091  
5.75                    0.998001         168.957         0.061769         80.9941         0.061769         80.9941          0.99803         173.031  
5.8                     0.997966         168.862        0.0623016         80.9158        0.0623016         80.9158         0.997997          172.97  
5.85                    0.997932         168.766        0.0628341         80.8375        0.0628341         80.8375         0.997963          172.91  
5.9                     0.997897         168.671        0.0633665         80.7592        0.0633665         80.7592         0.997928         172.849  
5.95                    0.997862         168.575        0.0638988         80.6808        0.0638988         80.6808         0.997894         172.789  
6                       0.997827         168.479         0.064431         80.6025         0.064431         80.6025         0.997859         172.729  
6.05                    0.997791         168.384         0.064963         80.5243         0.064963         80.5243         0.997824         172.668  
6.1                     0.997755         168.288         0.065495          80.446         0.065495          80.446         0.997789         172.608  
6.15                    0.997719         168.193        0.0660268         80.3677        0.0660268         80.3677         0.997753         172.548  
6.2                     0.997683         168.097        0.0665585         80.2894        0.0665585         80.2894         0.997717         172.487  
6.25                    0.997646         168.002        0.0670901         80.2112        0.0670901         80.2112         0.997681         172.427  
6.3                     0.997609         167.906        0.0676216         80.1329        0.0676216         80.1329         0.997645         172.367  
6.35                    0.997571         167.811        0.0681529         80.0547        0.0681529         80.0547         0.997608         172.306  
6.4                     0.997534         167.715        0.0686841         79.9764        0.0686841         79.9764         0.997571         172.246  
6.45                    0.997496          167.62        0.0692152         79.8982        0.0692152         79.8982         0.997534         172.186  
6.5                     0.997458         167.524        0.0697462           79.82        0.0697462           79.82         0.997496         172.125  
6.55                    0.997419         167.429         0.070277         79.7417         0.070277         79.7417         0.997458         172.065  
6.6                      0.99738         167.333        0.0708078         79.6635        0.0708078         79.6635          0.99742         172.005  
6.65                    0.997341         167.238        0.0713384         79.5853        0.0713384         79.5853         0.997382         171.944  
6.7                     0.997302         167.142        0.0718688         79.5071        0.0718688         79.5071         0.997343         171.884  
6.75                    0.997262         167.047        0.0723992          79.429        0.0723992          79.429         0.997304         171.824  
6.8                     0.997223         166.951        0.0729294         79.3508        0.0729294         79.3508         0.997265         171.764  
6.85                    0.997182         166.856        0.0734595         79.2726        0.0734595         79.2726         0.997226         171.703  
6.9                     0.997142         166.761        0.0739894         79.1944        0.0739894         79.1944         0.997186         171.643  
6.95                    0.997101         166.665        0.0745192         79.1163        0.0745192         79.1163         0.997146         171.583  
7                        0.99706          166.57        0.0750489         79.0381        0.0750489         79.0381         0.997106         171.523  
7.05                    0.997019         166.474        0.0755785           78.96        0.0755785           78.96         0.997065         171.462  
7.1                     0.996977         166.379        0.0761079         78.8819        0.0761079         78.8819         0.997024         171.402  
7.15                    0.996935         166.284        0.0766372         78.8037        0.0766372         78.8037         0.996983         171.342  
7.2                     0.996893         166.188        0.0771663         78.7256        0.0771663         78.7256         0.996942         171.282  
7.25                    0.996851         166.093        0.0776953         78.6475        0.0776953         78.6475           0.9969         171.221  
7.3                     0.996808         165.998        0.0782242         78.5694        0.0782242         78.5694         0.996858         171.161  
7.35                    0.996765         165.902         0.078753         78.4913         0.078753         78.4913         0.996816         171.101  
7.4                     0.996722         165.807        0.0792815         78.4132        0.0792815         78.4132         0.996773         171.041  
7.45                    0.996678         165.712          0.07981         78.3351          0.07981         78.3351         0.996731         170.981  
7.5                     0.996634         165.616        0.0803383         78.2571        0.0803383         78.2571         0.996688          170.92  
7.55                     0.99659         165.521        0.0808665          78.179        0.0808665          78.179         0.996644          170.86  
7.6                     0.996546         165.426        0.0813945          78.101        0.0813945          78.101         0.996601           170.8  
7.65                    0.996501         165.331        0.0819224         78.0229        0.0819224         78.0229         0.996557          170.74  
7.7                     0.996456         165.235        0.0824502         77.9449        0.0824502         77.9449         0.996513          170.68  
7.75                    0.996411          165.14        0.0829778         77.8668        0.0829777         77.8668         0.996468          170.62  
7.8                     0.996365         165.045        0.0835052         77.7888        0.0835052         77.7888         0.996424          170.56  
7.85                    0.996319          164.95        0.0840325         77.7108        0.0840325         77.7108         0.996379         170.499  
7.9                     0.996273         164.855        0.0845597         77.6328        0.0845597         77.6328         0.996334         170.439  
7.95                    0.996227         164.759        0.0850867         77.5548        0.0850867         77.5548         0.996288         170.379  
8                        0.99618         164.664        0.0856135         77.4768        0.0856135         77.4768         0.996243         170.319  
8.05                    0.996133         164.569        0.0861402         77.3988        0.0861402         77.3988         0.996197         170.259  
8.1                     0.996086         164.474        0.0866668         77.3208        0.0866668         77.3208          0.99615         170.199  
8.15                    0.996038         164.379        0.0871932         77.2429        0.0871932         77.2429         0.996104         170.139  
8.2                      0.99599         164.284        0.0877195         77.1649        0.0877194         77.1649         0.996057         170.079  
8.25                    0.995942         164.189        0.0882456          77.087        0.0882455          77.087          0.99601         170.019  
8.3                     0.995894         164.094        0.0887715          77.009        0.0887715          77.009         0.995963         169.958  
8.35                    0.995845         163.999        0.0892973         76.9311        0.0892973         76.9311         0.995915         169.898  
8.4                     0.995796         163.903        0.0898229         76.8532        0.0898229         76.8532         0.995867         169.838  
8.45                    0.995747         163.808        0.0903484         76.7753        0.0903484         76.7753         0.995819         169.778  
8.5                     0.995697         163.713        0.0908737         76.6973        0.0908737         76.6973          0.99577         169.718  
8.55                    0.995648         163.618        0.0913989         76.6195        0.0913989         76.6195         0.995722         169.658  
8.6                     0.995598         163.523        0.0919239         76.5416        0.0919239         76.5416         0.995673         169.598  
8.65                    0.995547         163.428        0.0924487         76.4637        0.0924487         76.4637         0.995624         169.538  
8.7                     0.995497         163.333        0.0929734         76.3858        0.0929734         76.3858         0.995574         169.478  
8.75                    0.995446         163.238        0.0934979         76.3079        0.0934979         76.3079         0.995524         169.418  
8.8                     0.995395         163.143        0.0940223         76.2301        0.0940223         76.2301         0.995474         169.358  
8.85                    0.995343         163.049        0.0945465         76.1522        0.0945465         76.1522         0.995424         169.298  
8.9                     0.995291         162.954        0.0950705         76.0744        0.0950705         76.0744         0.995374         169.238  
8.95                    0.995239         162.859        0.0955943         75.9966        0.0955943         75.9966         0.995323         169.178  
9                       0.995187         162.764         0.096118         75.9187         0.096118         75.9187         0.995272         169.118  
9.05                    0.995134         162.669        0.0966416         75.8409        0.0966416         75.8409          0.99522         169.058  
9.1                     0.995081         162.574        0.0971649         75.7631        0.0971649         75.7631         0.995169         168.998  
9.15                    0.995028         162.479        0.0976881         75.6853        0.0976881         75.6853         0.995117         168.938  
9.2                     0.994975         162.384        0.0982111         75.6075        0.0982111         75.6075         0.995065         168.878  
9.25                    0.994921         162.289         0.098734         75.5298         0.098734         75.5298         0.995012         168.818  
9.3                     0.994867         162.195        0.0992567          75.452        0.0992567          75.452          0.99496         168.758  
9.35                    0.994813           162.1        0.0997792         75.3742        0.0997792         75.3742         0.994907         168.699  
9.4                     0.994758         162.005         0.100302         75.2965         0.100302         75.2965         0.994853         168.639  
9.45                    0.994704          161.91         0.100824         75.2187         0.100824         75.2187           0.9948         168.579  
9.5                     0.994648         161.815         0.101346          75.141         0.101346          75.141         0.994746         168.519  
9.55                    0.994593         161.721         0.101868         75.0633         0.101868         75.0633         0.994692         168.459  
9.6                     0.994537         161.626         0.102389         74.9855         0.102389         74.9855         0.994638         168.399  
9.65                    0.994481         161.531         0.102911         74.9078         0.102911         74.9078         0.994583         168.339  
9.7                     0.994425         161.437         0.103432         74.8301         0.103432         74.8301         0.994529         168.279  