! TOUCHSTONE file generated by CST MICROWAVE STUDIO
! Date and time: Sat Oct 08 09:43:46 2016
! Project name: tomas_icrh_linear_2016-plasma-Rdiel=200.cst
! Header version: 2015
! Port assignment regex: !\s*Touchstone port\s*([0-9]+)\s*=\s*CST MWS port\s*([0-9]+)\s*\(\"(.*)\"\)(\s*mode\s*([0-9]+))?.*
! Touchstone port assignment:
! Touchstone port 1 = CST MWS port 1 ("")
! Touchstone port 2 = CST MWS port 2 ("")
# MHZ S MA R 50
0                       0.999997        -179.999     2.92916e-006        -155.546     2.92842e-006        -155.567                1        -179.988  
0.05                           1         179.902      0.000555786         89.2286      0.000555786         89.2285                1          179.95  
0.1                            1         179.804       0.00111209          89.028       0.00111209         89.0279                1         179.887  
0.15                    0.999999         179.705       0.00166767         88.9185       0.00166767         88.9184         0.999999         179.825  
0.2                     0.999999         179.606       0.00222255         88.8318       0.00222255         88.8318         0.999999         179.763  
0.25                    0.999998         179.508       0.00277674         88.7543       0.00277674         88.7543         0.999998         179.701  
0.3                     0.999998          179.41       0.00333026         88.6814       0.00333026         88.6814         0.999998         179.638  
0.35                    0.999997         179.311       0.00388313         88.6112       0.00388312         88.6112         0.999997         179.576  
0.4                     0.999996         179.213       0.00443534         88.5427       0.00443534         88.5426         0.999996         179.514  
0.45                    0.999995         179.115       0.00498694         88.4753       0.00498693         88.4752         0.999995         179.452  
0.5                     0.999994         179.017       0.00553792         88.4086       0.00553791         88.4086         0.999994          179.39  
0.55                    0.999993         178.919        0.0060883         88.3426       0.00608829         88.3426         0.999993         179.328  
0.6                     0.999991         178.821       0.00663809          88.277       0.00663809          88.277         0.999991         179.266  
0.65                     0.99999         178.723       0.00718732         88.2118       0.00718731         88.2117         0.999988         179.204  
0.7                     0.999988         178.625       0.00773598         88.1468       0.00773598         88.1467         0.999984         179.142  
0.75                    0.999986         178.527       0.00828411         88.0819        0.0082841         88.0819          0.99998          179.08  
0.8                     0.999985         178.429       0.00883171         88.0173        0.0088317         88.0172         0.999975         179.019  
0.85                    0.999983         178.331       0.00937879         87.9527       0.00937879         87.9527          0.99997         178.957  
0.9                      0.99998         178.234       0.00992538         87.8882       0.00992537         87.8882         0.999965         178.895  
0.95                    0.999978         178.136        0.0104715         87.8238        0.0104715         87.8238          0.99996         178.833  
1                       0.999976         178.039        0.0110171         87.7593        0.0110171         87.7593         0.999954         178.772  
1.05                    0.999974         177.941        0.0115623         87.6949        0.0115622         87.6949         0.999948          178.71  
1.1                     0.999971         177.844         0.012107         87.6305         0.012107         87.6305         0.999941         178.649  
1.15                    0.999968         177.746        0.0126512         87.5661        0.0126512          87.566         0.999934         178.587  
1.2                     0.999966         177.649        0.0131951         87.5016        0.0131951         87.5015         0.999927         178.526  
1.25                    0.999963         177.552        0.0137385          87.437        0.0137385          87.437          0.99992         178.464  
1.3                     0.999958         177.455        0.0142816         87.3724        0.0142816         87.3724         0.999912         178.403  
1.35                     0.99995         177.358        0.0148242         87.3077        0.0148242         87.3076         0.999903         178.341  
1.4                     0.999942         177.261        0.0153665         87.2428        0.0153665         87.2428         0.999895          178.28  
1.45                    0.999934         177.164        0.0159084         87.1779        0.0159084         87.1779         0.999886         178.219  
1.5                     0.999925         177.067        0.0164499         87.1129        0.0164499         87.1129         0.999877         178.157  
1.55                    0.999916          176.97        0.0169911         87.0477        0.0169911         87.0477         0.999867         178.096  
1.6                     0.999906         176.873        0.0175319         86.9824        0.0175319         86.9824         0.999857         178.035  
1.65                    0.999895         176.776        0.0180725          86.917        0.0180724          86.917         0.999847         177.974  
1.7                     0.999884          176.68        0.0186127         86.8514        0.0186126         86.8514         0.999836         177.913  
1.75                    0.999873         176.583        0.0191526         86.7857        0.0191525         86.7857         0.999825         177.852  
1.8                     0.999861         176.486        0.0196921         86.7197        0.0196921         86.7197         0.999814         177.791  
1.85                    0.999848          176.39        0.0202314         86.6536        0.0202314         86.6536         0.999802          177.73  
1.9                     0.999835         176.294        0.0207705         86.5874        0.0207705         86.5874          0.99979         177.669  
1.95                    0.999822         176.197        0.0213092         86.5209        0.0213092         86.5209         0.999777         177.608  
2                       0.999808         176.101        0.0218477         86.4542        0.0218477         86.4542         0.999764         177.547  
2.05                    0.999793         176.005        0.0223859         86.3873        0.0223859         86.3873         0.999751         177.486  
2.1                     0.999778         175.908        0.0229239         86.3202        0.0229238         86.3202         0.999738         177.425  
2.15                    0.999762         175.812        0.0234616         86.2529        0.0234616         86.2529         0.999724         177.364  
2.2                     0.999746         175.716         0.023999         86.1854         0.023999         86.1854         0.999709         177.304  
2.25                    0.999729          175.62        0.0245363         86.1176        0.0245363         86.1176         0.999695         177.243  
2.3                     0.999711         175.524        0.0250733         86.0496        0.0250733         86.0496          0.99968         177.182  
2.35                    0.999693         175.428        0.0256101         85.9814        0.0256101         85.9814         0.999664         177.122  
2.4                     0.999675         175.332        0.0261467         85.9129        0.0261467         85.9129         0.999648         177.061  
2.45                    0.999656         175.237         0.026683         85.8442         0.026683         85.8442         0.999632         177.001  
2.5                     0.999636         175.141        0.0272192         85.7752        0.0272192         85.7752         0.999616          176.94  
2.55                    0.999615         175.045        0.0277551         85.7059        0.0277551         85.7059         0.999599          176.88  
2.6                     0.999594          174.95        0.0282909         85.6364        0.0282909         85.6364         0.999581         176.819  
2.65                    0.999573         174.854        0.0288264         85.5666        0.0288264         85.5667         0.999564         176.759  
2.7                      0.99955         174.758        0.0293618         85.4966        0.0293618         85.4966         0.999546         176.699  
2.75                    0.999527         174.663        0.0298969         85.4263        0.0298969         85.4263         0.999527         176.638  
2.8                     0.999504         174.568        0.0304319         85.3557        0.0304319         85.3557         0.999508         176.578  
2.85                     0.99948         174.472        0.0309667         85.2848        0.0309667         85.2848         0.999489         176.518  
2.9                     0.999455         174.377        0.0315013         85.2136        0.0315013         85.2136         0.999469         176.458  
2.95                     0.99943         174.282        0.0320357         85.1422        0.0320357         85.1422         0.999449         176.397  
3                       0.999403         174.187        0.0325699         85.0705        0.0325699         85.0705         0.999429         176.337  
3.05                    0.999377         174.092         0.033104         84.9984         0.033104         84.9984         0.999408         176.277  
3.1                     0.999349         173.997        0.0336379         84.9261        0.0336379         84.9261         0.999387         176.217  
3.15                    0.999321         173.902        0.0341716         84.8535        0.0341716         84.8535         0.999365         176.157  
3.2                     0.999293         173.807        0.0347051         84.7806        0.0347051         84.7806         0.999344         176.097  
3.25                    0.999263         173.712        0.0352384         84.7074        0.0352384         84.7074         0.999321         176.038  
3.3                     0.999233         173.617        0.0357716         84.6339        0.0357716         84.6339         0.999298         175.978  
3.35                    0.999202         173.522        0.0363046         84.5601        0.0363046         84.5601         0.999275         175.918  
3.4                     0.999171         173.428        0.0368374          84.486        0.0368374          84.486         0.999252         175.858  
3.45                    0.999138         173.333          0.03737         84.4116          0.03737         84.4116         0.999228         175.799  
3.5                     0.999105         173.239        0.0379024         84.3369        0.0379024         84.3369         0.999203         175.739  
3.55                    0.999072         173.144        0.0384347         84.2618        0.0384347         84.2618         0.999179         175.679  
3.6                     0.999037          173.05        0.0389668         84.1865        0.0389668         84.1865         0.999153          175.62  
3.65                    0.999002         172.955        0.0394986         84.1109        0.0394986         84.1109         0.999128          175.56  
3.7                     0.998966         172.861        0.0400303          84.035        0.0400303          84.035         0.999102         175.501  
3.75                     0.99893         172.767        0.0405618         83.9587        0.0405618         83.9588         0.999076         175.441  
3.8                     0.998893         172.673        0.0410931         83.8822        0.0410931         83.8822         0.999049         175.382  
3.85                    0.998855         172.579        0.0416242         83.8054        0.0416242         83.8054         0.999022         175.322  
3.9                     0.998815         172.482        0.0421706          83.726        0.0421706          83.726         0.998993         175.261  
3.95                    0.998775         172.385        0.0427172         83.6462        0.0427172         83.6462         0.998965           175.2  
4                       0.998733         172.288        0.0432639         83.5661        0.0432639         83.5661         0.998935         175.139  
4.05                    0.998691         172.191        0.0438109         83.4856        0.0438109         83.4856         0.998906         175.078  
4.1                     0.998648         172.094         0.044358         83.4047         0.044358         83.4047         0.998876         175.017  
4.15                    0.998605         171.997        0.0449053         83.3235        0.0449053         83.3235         0.998845         174.956  
4.2                      0.99856           171.9        0.0454528          83.242        0.0454528          83.242         0.998814         174.895  
4.25                    0.998515         171.803        0.0460004         83.1601        0.0460004         83.1601         0.998783         174.834  
4.3                     0.998468         171.706        0.0465482         83.0778        0.0465482         83.0778         0.998751         174.773  
4.35                    0.998421         171.609        0.0470961         82.9952        0.0470961         82.9952         0.998718         174.712  
4.4                     0.998373         171.512        0.0476442         82.9123        0.0476442         82.9123         0.998685         174.651  
4.45                    0.998324         171.415        0.0481924          82.829        0.0481924          82.829         0.998652          174.59  
4.5                     0.998275         171.318        0.0487408         82.7454        0.0487408         82.7454         0.998618         174.529  
4.55                    0.998224         171.221        0.0492893         82.6614        0.0492893         82.6614         0.998584         174.468  
4.6                     0.998173         171.124        0.0498379         82.5771        0.0498379         82.5771         0.998549         174.407  
4.65                     0.99812         171.027        0.0503866         82.4925        0.0503866         82.4925         0.998514         174.346  
4.7                     0.998067          170.93        0.0509354         82.4075        0.0509354         82.4075         0.998478         174.285  
4.75                    0.998012         170.833        0.0514844         82.3222        0.0514844         82.3222         0.998442         174.224  
4.8                     0.997957         170.736        0.0520334         82.2365        0.0520334         82.2365         0.998406         174.163  
4.85                    0.997901         170.639        0.0525825         82.1506        0.0525825         82.1506         0.998368         174.102  
4.9                     0.997844         170.541        0.0531317         82.0643        0.0531317         82.0643         0.998331         174.041  
4.95                    0.997786         170.444         0.053681         81.9777         0.053681         81.9777         0.998293          173.98  
5                       0.997727         170.347        0.0542303         81.8908        0.0542303         81.8908         0.998254         173.919  
5.05                    0.997667          170.25        0.0547797         81.8036        0.0547797         81.8036         0.998215         173.858  
5.1                     0.997606         170.153        0.0553291         81.7161        0.0553291         81.7161         0.998176         173.797  
5.15                    0.997545         170.056        0.0558786         81.6282        0.0558786         81.6282         0.998136         173.736  
5.2                     0.997482         169.959        0.0564282         81.5401        0.0564282         81.5401         0.998095         173.675  
5.25                    0.997418         169.862        0.0569777         81.4517        0.0569777         81.4517         0.998054         173.614  
5.3                     0.997353         169.764        0.0575273          81.363        0.0575273          81.363         0.998013         173.553  
5.35                    0.997288         169.667        0.0580769         81.2739        0.0580769         81.2739         0.997971         173.492  
5.4                     0.997221          169.57        0.0586265         81.1846        0.0586265         81.1846         0.997928         173.431  
5.45                    0.997153         169.473        0.0591761          81.095        0.0591761          81.095         0.997885          173.37  
5.5                     0.997084         169.376        0.0597257         81.0052        0.0597257         81.0052         0.997842         173.309  
5.55                    0.997015         169.279        0.0602752          80.915        0.0602752          80.915         0.997798         173.248  
5.6                     0.996944         169.181        0.0608248         80.8246        0.0608248         80.8246         0.997754         173.187  
5.65                    0.996872         169.084        0.0613743         80.7339        0.0613743         80.7339         0.997709         173.126  
5.7                     0.996799         168.987        0.0619237          80.643        0.0619237          80.643         0.997663         173.065  
5.75                    0.996725          168.89        0.0624732         80.5518        0.0624732         80.5518         0.997617         173.004  
5.8                      0.99665         168.793        0.0630225         80.4603        0.0630225         80.4603         0.997571         172.943  
5.85                    0.996575         168.696        0.0635718         80.3686        0.0635718         80.3686         0.997524         172.883  
5.9                     0.996498         168.598         0.064121         80.2766         0.064121         80.2766         0.997476         172.822  
5.95                     0.99642         168.501        0.0646701         80.1844        0.0646701         80.1844         0.997428         172.761  
6                        0.99634         168.404        0.0652191         80.0919        0.0652191         80.0919          0.99738           172.7  
6.05                     0.99626         168.307         0.065768         79.9992         0.065768         79.9992         0.997331         172.639  
6.1                     0.996179          168.21        0.0663169         79.9063        0.0663169         79.9063         0.997282         172.578  
6.15                    0.996097         168.113        0.0668656         79.8131        0.0668655         79.8131         0.997232         172.517  
6.2                     0.996013         168.015        0.0674141         79.7197        0.0674141         79.7197         0.997181         172.456  
6.25                    0.995929         167.918        0.0679625         79.6261        0.0679625         79.6261          0.99713         172.395  
6.3                     0.995844         167.821        0.0685108         79.5323        0.0685108         79.5323         0.997079         172.335  
6.35                    0.995757         167.724         0.069059         79.4383         0.069059         79.4382         0.997027         172.274  
6.4                     0.995669         167.627        0.0696069          79.344        0.0696069          79.344         0.996974         172.213  
6.45                     0.99558          167.53        0.0701547         79.2495        0.0701547         79.2495         0.996921         172.152  
6.5                     0.995491         167.432        0.0707024         79.1549        0.0707024         79.1549         0.996867         172.091  
6.55                      0.9954         167.335        0.0712498           79.06        0.0712498           79.06         0.996813         172.031  
6.6                     0.995307         167.238         0.071797          78.965         0.071797          78.965         0.996759          171.97  
6.65                    0.995214         167.141        0.0723441         78.8697        0.0723441         78.8697         0.996703         171.909  
6.7                      0.99512         167.044        0.0728909         78.7743        0.0728909         78.7743         0.996648         171.848  
6.75                    0.995025         166.947        0.0734375         78.6787        0.0734375         78.6787         0.996592         171.787  
6.8                     0.994928         166.849        0.0739839         78.5829        0.0739839         78.5829         0.996535         171.727  
6.85                     0.99483         166.752        0.0745301          78.487        0.0745301          78.487         0.996478         171.666  
6.9                     0.994732         166.655         0.075076         78.3909         0.075076         78.3909          0.99642         171.605  
6.95                    0.994632         166.558        0.0756216         78.2946        0.0756216         78.2946         0.996362         171.544  
7                       0.994531         166.461         0.076167         78.1981         0.076167         78.1981         0.996303         171.484  
7.05                    0.994429         166.364        0.0767121         78.1015        0.0767121         78.1015         0.996244         171.423  
7.1                     0.994325         166.267         0.077257         78.0048         0.077257         78.0048         0.996184         171.362  
7.15                    0.994221          166.17        0.0778015         77.9079        0.0778015         77.9079         0.996124         171.302  
7.2                     0.994116         166.073        0.0783458         77.8108        0.0783458         77.8108         0.996063         171.241  
7.25                    0.994009         165.975        0.0788898         77.7136        0.0788898         77.7136         0.996001          171.18  
7.3                     0.993901         165.878        0.0794335         77.6163        0.0794335         77.6163         0.995939          171.12  
7.35                    0.993792         165.781        0.0799768         77.5188        0.0799768         77.5188         0.995877         171.059  
7.4                     0.993682         165.684        0.0805199         77.4212        0.0805199         77.4212         0.995814         170.998  
7.45                    0.993571         165.587        0.0810626         77.3235        0.0810626         77.3235         0.995751         170.938  
7.5                     0.993459          165.49        0.0816049         77.2256        0.0816049         77.2256         0.995687         170.877  
7.55                    0.993346         165.393         0.082147         77.1277         0.082147         77.1277         0.995622         170.816  
7.6                     0.993231         165.296        0.0826886         77.0296        0.0826886         77.0296         0.995557         170.756  
7.65                    0.993115         165.199          0.08323         76.9314        0.0832299         76.9314         0.995491         170.695  
7.7                     0.992999         165.102        0.0837709         76.8331        0.0837709         76.8331         0.995425         170.635  
7.75                    0.992881         165.005        0.0843115         76.7347        0.0843115         76.7347         0.995359         170.574  
7.8                     0.992762         164.908        0.0848517         76.6362        0.0848517         76.6362         0.995292         170.514  
7.85                    0.992642         164.811        0.0853915         76.5376        0.0853915         76.5376         0.995224         170.453  
7.9                     0.992521         164.714        0.0859309         76.4389        0.0859309         76.4389         0.995156         170.393  
7.95                    0.992398         164.617        0.0864699         76.3401        0.0864699         76.3401         0.995087         170.332  
8                       0.992275          164.52        0.0870086         76.2412        0.0870086         76.2412         0.995018         170.272  
8.05                     0.99215         164.423        0.0875468         76.1422        0.0875468         76.1422         0.994948         170.211  
8.1                     0.992025         164.327        0.0880846         76.0432        0.0880845         76.0432         0.994877         170.151  
8.15                    0.991898          164.23        0.0886219         75.9441        0.0886219         75.9441         0.994807          170.09  
8.2                     0.991771         164.133        0.0891588         75.8449        0.0891588         75.8449         0.994735          170.03  
8.25                    0.991642         164.036        0.0896953         75.7456        0.0896953         75.7456         0.994663          169.97  
8.3                     0.991512         163.939        0.0902314         75.6463        0.0902314         75.6463         0.994591         169.909  
8.35                    0.991381         163.842         0.090767         75.5469         0.090767         75.5469         0.994518         169.849  
8.4                      0.99125         163.745        0.0913021         75.4474        0.0913021         75.4474         0.994444         169.789  
8.45                    0.991117         163.648        0.0918368         75.3479        0.0918368         75.3479          0.99437         169.728  
8.5                     0.990983         163.552         0.092371         75.2483         0.092371         75.2483         0.994296         169.668  
8.55                    0.990848         163.455        0.0929048         75.1487        0.0929048         75.1487         0.994221         169.608  
8.6                     0.990713         163.358        0.0934381          75.049         0.093438          75.049         0.994145         169.547  
8.65                    0.990576         163.261        0.0939708         74.9493        0.0939708         74.9493         0.994069         169.487  
8.7                     0.990439         163.165        0.0945031         74.8495        0.0945031         74.8495         0.993992         169.427  
8.75                      0.9903         163.068         0.095035         74.7497        0.0950349         74.7497         0.993915         169.367  
8.8                     0.990161         162.971        0.0955663         74.6499        0.0955663         74.6499         0.993837         169.306  
8.85                    0.990021         162.874        0.0960971           74.55        0.0960971           74.55         0.993759         169.246  
8.9                     0.989881         162.778        0.0966274         74.4501        0.0966274         74.4501          0.99368         169.186  
8.95                    0.989739         162.681        0.0971572         74.3501        0.0971572         74.3501         0.993601         169.126  
9                       0.989597         162.584        0.0976865         74.2502        0.0976864         74.2502         0.993521         169.066  
9.05                    0.989454         162.487        0.0982152         74.1502        0.0982152         74.1502         0.993441         169.006  
9.1                     0.989311         162.391        0.0987435         74.0501        0.0987434         74.0501          0.99336         168.945  
9.15                    0.989167         162.294        0.0992712         73.9501        0.0992712         73.9501         0.993279         168.885  
9.2                     0.989022         162.197        0.0997984           73.85        0.0997983           73.85         0.993197         168.825  
9.25                    0.988878         162.101         0.100325           73.75         0.100325           73.75         0.993114         168.765  
9.3                     0.988733         162.004         0.100851         73.6499         0.100851         73.6499         0.993031         168.705  
9.35                    0.988587         161.908         0.101377         73.5498         0.101377         73.5498         0.992948         168.645  
9.4                     0.988441         161.811         0.101902         73.4497         0.101902         73.4497         0.992864         168.585  
9.45                    0.988296         161.714         0.102426         73.3496         0.102426         73.3496          0.99278         168.525  
9.5                      0.98815         161.618          0.10295         73.2495          0.10295         73.2495         0.992695         168.465  
9.55                    0.988004         161.521         0.103474         73.1494         0.103474         73.1494         0.992609         168.405  
9.6                     0.987858         161.425         0.103996         73.0493         0.103996         73.0493         0.992523         168.345  
9.65                    0.987713         161.329         0.104519         72.9492         0.104519         72.9492         0.992436         168.285  
9.7                     0.987568         161.232          0.10504         72.8491          0.10504         72.8491         0.992349         168.225  