! TOUCHSTONE file generated by CST MICROWAVE STUDIO
! Date and time: Thu Oct 06 20:46:09 2016
! Project name: tomas_icrh_linear_2016-plasma-Rdiel=200.cst
! Header version: 2015
! Port assignment regex: !\s*Touchstone port\s*([0-9]+)\s*=\s*CST MWS port\s*([0-9]+)\s*\(\"(.*)\"\)(\s*mode\s*([0-9]+))?.*
! Touchstone port assignment:
! Touchstone port 1 = CST MWS port 1 ("")
! Touchstone port 2 = CST MWS port 2 ("")
# MHZ S MA R 50
0                              1         179.999     5.90377e-005         87.0191     5.91355e-005         87.0455         0.999999         179.999  
0.05                           1         179.902       0.00057189         89.8932      0.000571938         89.8943         0.999996         179.938  
0.1                     0.999993         179.806        0.0010854         89.9792        0.0010854         89.9792         0.999993         179.877  
0.15                    0.999959         179.709       0.00159942          89.962       0.00159937         89.9616          0.99999         179.816  
0.2                     0.999925         179.612       0.00211396         89.9168       0.00211387         89.9162         0.999987         179.755  
0.25                    0.999892         179.516       0.00262902           89.86       0.00262888         89.8593         0.999983         179.695  
0.3                     0.999858         179.419       0.00314459         89.7973        0.0031444         89.7965          0.99998         179.634  
0.35                    0.999826         179.323       0.00366066          89.731       0.00366043         89.7302         0.999976         179.573  
0.4                     0.999793         179.226       0.00417724         89.6625       0.00417697         89.6617         0.999971         179.512  
0.45                    0.999761          179.13       0.00469431         89.5926       0.00469399         89.5917         0.999967         179.451  
0.5                     0.999729         179.033       0.00521187         89.5215       0.00521152         89.5206         0.999962          179.39  
0.55                    0.999698         178.937       0.00572992         89.4496       0.00572952         89.4487         0.999957         179.329  
0.6                     0.999667          178.84       0.00624844         89.3771       0.00624801         89.3762         0.999952         179.268  
0.65                    0.999636         178.744       0.00676744          89.304       0.00676698         89.3031         0.999947         179.207  
0.7                     0.999605         178.648       0.00728692         89.2306       0.00728641         89.2297         0.999942         179.146  
0.75                    0.999575         178.551       0.00780685         89.1568       0.00780631         89.1559         0.999936         179.085  
0.8                     0.999545         178.455       0.00832725         89.0827       0.00832668         89.0818          0.99993         179.024  
0.85                    0.999516         178.359        0.0088481         89.0083        0.0088475         89.0074         0.999924         178.963  
0.9                     0.999486         178.263       0.00936941         88.9338       0.00936876         88.9328         0.999917         178.902  
0.95                    0.999458         178.166       0.00989115          88.859       0.00989048         88.8581          0.99991         178.841  
1                       0.999429          178.07        0.0104133          88.784        0.0104126         88.7831         0.999904          178.78  
1.05                    0.999401         177.974         0.010936         88.7088        0.0109352         88.7079         0.999896         178.719  
1.1                     0.999373         177.878         0.011459         88.6335        0.0114583         88.6326         0.999889         178.658  
1.15                    0.999345         177.782        0.0119825          88.558        0.0119817         88.5571         0.999882         178.598  
1.2                     0.999318         177.686        0.0125064         88.4824        0.0125056         88.4815         0.999874         178.537  
1.25                    0.999291          177.59        0.0130307         88.4067        0.0130299         88.4058         0.999866         178.476  
1.3                     0.999265         177.494        0.0135554         88.3308        0.0135546           88.33         0.999857         178.415  
1.35                    0.999238         177.398        0.0140806         88.2548        0.0140797          88.254         0.999849         178.354  
1.4                     0.999212         177.302        0.0146061         88.1787        0.0146052         88.1779          0.99984         178.293  
1.45                    0.999187         177.206         0.015132         88.1025        0.0151311         88.1017         0.999831         178.232  
1.5                     0.999161          177.11        0.0156583         88.0262        0.0156574         88.0253         0.999822         178.171  
1.55                    0.999136         177.014         0.016185         87.9497        0.0161841         87.9489         0.999812          178.11  
1.6                     0.999111         176.918        0.0167121         87.8732        0.0167111         87.8724         0.999803          178.05  
1.65                    0.999087         176.822        0.0172396         87.7966        0.0172386         87.7957         0.999793         177.989  
1.7                     0.999063         176.726        0.0177674         87.7198        0.0177664          87.719         0.999783         177.928  
1.75                    0.999039          176.63        0.0182956          87.643        0.0182946         87.6422         0.999772         177.867  
1.8                     0.999015         176.534        0.0188242          87.566        0.0188231         87.5652         0.999761         177.806  
1.85                    0.998992         176.438        0.0193531          87.489         0.019352         87.4882         0.999751         177.745  
1.9                     0.998969         176.342        0.0198824         87.4119        0.0198813         87.4111         0.999739         177.684  
1.95                    0.998946         176.246         0.020412         87.3347        0.0204109         87.3339         0.999728         177.623  
2                       0.998923         176.151         0.020942         87.2573        0.0209409         87.2566         0.999716         177.563  
2.05                    0.998901         176.055        0.0214723         87.1799        0.0214712         87.1792         0.999704         177.502  
2.1                     0.998879         175.959         0.022003         87.1025        0.0220018         87.1017         0.999692         177.441  
2.15                    0.998857         175.863        0.0225339         87.0249        0.0225327         87.0241          0.99968          177.38  
2.2                     0.998835         175.767        0.0230653         86.9472         0.023064         86.9465         0.999667         177.319  
2.25                    0.998814         175.671        0.0235969         86.8695        0.0235957         86.8687         0.999654         177.258  
2.3                     0.998793         175.576        0.0241288         86.7916        0.0241276         86.7909         0.999641         177.198  
2.35                    0.998772          175.48        0.0246611         86.7137        0.0246598          86.713         0.999627         177.137  
2.4                     0.998751         175.384        0.0251936         86.6357        0.0251924          86.635         0.999613         177.076  
2.45                     0.99873         175.288        0.0257265         86.5576        0.0257252         86.5569         0.999599         177.015  
2.5                      0.99871         175.192        0.0262597         86.4794        0.0262584         86.4787         0.999585         176.954  
2.55                     0.99869         175.097        0.0267931         86.4012        0.0267918         86.4005         0.999571         176.893  
2.6                      0.99867         175.001        0.0273269         86.3228        0.0273256         86.3221         0.999556         176.833  
2.65                     0.99865         174.905        0.0278609         86.2444        0.0278596         86.2437         0.999541         176.772  
2.7                      0.99863         174.809        0.0283952         86.1659        0.0283939         86.1652         0.999526         176.711  
2.75                    0.998611         174.713        0.0289298         86.0873        0.0289285         86.0866          0.99951          176.65  
2.8                     0.998591         174.618        0.0294647         86.0086        0.0294634          86.008         0.999494         176.589  
2.85                    0.998572         174.522        0.0299998         85.9299        0.0299985         85.9292         0.999478         176.529  
2.9                     0.998553         174.426        0.0305352          85.851        0.0305339         85.8504         0.999461         176.468  
2.95                    0.998534          174.33        0.0310709         85.7721        0.0310695         85.7715         0.999445         176.407  
3                       0.998515         174.235        0.0316068         85.6931        0.0316054         85.6925         0.999428         176.346  
3.05                    0.998496         174.139        0.0321429         85.6141        0.0321416         85.6135         0.999411         176.286  
3.1                     0.998477         174.043        0.0326793         85.5349         0.032678         85.5343         0.999393         176.225  
3.15                    0.998459         173.947         0.033216         85.4557        0.0332146         85.4551         0.999375         176.164  
3.2                      0.99844         173.851        0.0337529         85.3764        0.0337515         85.3758         0.999357         176.103  
3.25                    0.998422         173.756          0.03429          85.297        0.0342886         85.2965         0.999339         176.042  
3.3                     0.998403          173.66        0.0348273         85.2176         0.034826          85.217          0.99932         175.982  
3.35                    0.998385         173.564        0.0353649          85.138        0.0353635         85.1375         0.999301         175.921  
3.4                     0.998367         173.468        0.0359027         85.0584        0.0359013         85.0579         0.999282          175.86  
3.45                    0.998348         173.373        0.0364407         84.9787        0.0364393         84.9782         0.999262         175.799  
3.5                      0.99833         173.277        0.0369789          84.899        0.0369775         84.8984         0.999243         175.739  
3.55                    0.998312         173.181        0.0375173         84.8191         0.037516         84.8186         0.999223         175.678  
3.6                     0.998294         173.085         0.038056         84.7392        0.0380546         84.7387         0.999202         175.617  
3.65                    0.998275         172.989        0.0385948         84.6592        0.0385934         84.6587         0.999182         175.556  
3.7                     0.998257         172.893        0.0391338         84.5792        0.0391324         84.5787         0.999161         175.496  
3.75                    0.998239         172.798         0.039673         84.4991        0.0396716         84.4985         0.999139         175.435  
3.8                      0.99822         172.702        0.0402124         84.4188         0.040211         84.4183         0.999118         175.374  
3.85                    0.998202         172.606         0.040752         84.3386        0.0407506         84.3381         0.999096         175.313  
3.9                     0.998184          172.51        0.0412917         84.2582        0.0412904         84.2577         0.999074         175.253  
3.95                    0.998165         172.414        0.0418317         84.1778        0.0418303         84.1773         0.999051         175.192  
4                       0.998147         172.318        0.0423717         84.0973        0.0423704         84.0968         0.999028         175.131  
4.05                    0.998128         172.223         0.042912         84.0167        0.0429107         84.0163         0.999005         175.071  
4.1                     0.998109         172.127        0.0434524         83.9361        0.0434511         83.9356         0.998982          175.01  
4.15                    0.998091         172.031         0.043993         83.8554        0.0439917         83.8549         0.998958         174.949  
4.2                     0.998072         171.935        0.0445337         83.7746        0.0445324         83.7741         0.998934         174.888  
4.25                    0.998053         171.839        0.0450746         83.6937        0.0450733         83.6933          0.99891         174.828  
4.3                     0.998033         171.743        0.0456156         83.6128        0.0456143         83.6124         0.998885         174.767  
4.35                    0.998014         171.647        0.0461568         83.5318        0.0461555         83.5314         0.998861         174.706  
4.4                     0.997995         171.551        0.0466981         83.4508        0.0466968         83.4503         0.998835         174.646  
4.45                    0.997975         171.455        0.0472395         83.3696        0.0472382         83.3692          0.99881         174.585  
4.5                     0.997955         171.359        0.0477811         83.2884        0.0477798          83.288         0.998784         174.524  
4.55                    0.997935         171.263        0.0483228         83.2072        0.0483215         83.2068         0.998758         174.464  
4.6                     0.997915         171.167        0.0488646         83.1258        0.0488633         83.1254         0.998731         174.403  
4.65                    0.997895         171.072        0.0494065         83.0444        0.0494052          83.044         0.998704         174.342  
4.7                     0.997874         170.976        0.0499485          82.963        0.0499472         82.9626         0.998677         174.282  
4.75                    0.997853          170.88        0.0504906         82.8814        0.0504894         82.8811          0.99865         174.221  
4.8                     0.997832         170.784        0.0510329         82.7998        0.0510316         82.7995         0.998622          174.16  
4.85                    0.997811         170.688        0.0515752         82.7182         0.051574         82.7178         0.998594           174.1  
4.9                      0.99779         170.592        0.0521177         82.6364        0.0521164         82.6361         0.998566         174.039  
4.95                    0.997768         170.496        0.0526602         82.5546        0.0526589         82.5543         0.998537         173.978  
5                       0.997746         170.399        0.0532028         82.4728        0.0532016         82.4724         0.998508         173.918  
5.05                    0.997724         170.303        0.0537455         82.3908        0.0537443         82.3905         0.998478         173.857  
5.1                     0.997701         170.207        0.0542883         82.3089         0.054287         82.3085         0.998449         173.796  
5.15                    0.997678         170.111        0.0548311         82.2268        0.0548299         82.2265         0.998419         173.736  
5.2                     0.997655         170.015         0.055374         82.1447        0.0553728         82.1444         0.998388         173.675  
5.25                    0.997632         169.919         0.055917         82.0625        0.0559158         82.0622         0.998357         173.615  
5.3                     0.997608         169.823        0.0564601         81.9803        0.0564589           81.98         0.998326         173.554  
5.35                    0.997584         169.727        0.0570032          81.898         0.057002         81.8977         0.998295         173.493  
5.4                     0.997559         169.631        0.0575464         81.8156        0.0575452         81.8153         0.998263         173.433  
5.45                    0.997534         169.535        0.0580896         81.7332        0.0580884         81.7329         0.998231         173.372  
5.5                     0.997509         169.439        0.0586329         81.6507        0.0586317         81.6504         0.998199         173.312  
5.55                    0.997484         169.343        0.0591762         81.5682         0.059175         81.5679         0.998166         173.251  
5.6                     0.997458         169.246        0.0597195         81.4856        0.0597184         81.4853         0.998133          173.19  
5.65                    0.997431          169.15        0.0602629         81.4029        0.0602618         81.4026         0.998099          173.13  
5.7                     0.997405         169.054        0.0608064         81.3202        0.0608052         81.3199         0.998066         173.069  
5.75                    0.997378         168.958        0.0613498         81.2374        0.0613487         81.2372         0.998032         173.009  
5.8                      0.99735         168.862        0.0618933         81.1546        0.0618922         81.1543         0.997997         172.948  
5.85                    0.997322         168.766        0.0624368         81.0717        0.0624357         81.0714         0.997962         172.888  
5.9                     0.997294          168.67        0.0629803         80.9887        0.0629792         80.9885         0.997927         172.827  
5.95                    0.997265         168.573        0.0635238         80.9057        0.0635228         80.9055         0.997892         172.767  
6                       0.997236         168.477        0.0640674         80.8227        0.0640663         80.8224         0.997856         172.706  
6.05                    0.997206         168.381        0.0646109         80.7396        0.0646099         80.7393         0.997819         172.645  
6.1                     0.997176         168.285        0.0651545         80.6564        0.0651534         80.6562         0.997783         172.585  
6.15                    0.997146         168.189         0.065698         80.5732         0.065697         80.5729         0.997746         172.524  
6.2                     0.997115         168.092        0.0662416         80.4899        0.0662405         80.4897         0.997709         172.464  
6.25                    0.997083         167.996        0.0667851         80.4065        0.0667841         80.4063         0.997671         172.403  
6.3                     0.997051           167.9        0.0673286         80.3232        0.0673276          80.323         0.997633         172.343  
6.35                    0.997018         167.804        0.0678721         80.2397        0.0678711         80.2395         0.997595         172.282  
6.4                     0.996985         167.707        0.0684156         80.1562        0.0684146          80.156         0.997556         172.222  
6.45                    0.996952         167.611        0.0689591         80.0727        0.0689581         80.0725         0.997517         172.161  
6.5                     0.996918         167.515        0.0695025         79.9891        0.0695015         79.9889         0.997478         172.101  
6.55                    0.996883         167.419        0.0700459         79.9055         0.070045         79.9053         0.997438          172.04  
6.6                     0.996848         167.322        0.0705892         79.8218        0.0705883         79.8216         0.997398          171.98  
6.65                    0.996812         167.226        0.0711326          79.738        0.0711317         79.7378         0.997357         171.919  
6.7                     0.996776          167.13        0.0716759         79.6542         0.071675          79.654         0.997316         171.859  
6.75                    0.996739         167.033        0.0722191         79.5704        0.0722182         79.5702         0.997275         171.799  
6.8                     0.996702         166.937        0.0727623         79.4865        0.0727614         79.4863         0.997233         171.738  
6.85                    0.996664         166.841        0.0733054         79.4025        0.0733046         79.4024         0.997191         171.678  
6.9                     0.996626         166.745        0.0738485         79.3185        0.0738476         79.3184         0.997149         171.617  
6.95                    0.996587         166.648        0.0743915         79.2345        0.0743907         79.2344         0.997106         171.557  
7                       0.996547         166.552        0.0749345         79.1504        0.0749336         79.1503         0.997063         171.496  
7.05                    0.996507         166.456        0.0754774         79.0663        0.0754765         79.0662          0.99702         171.436  
7.1                     0.996466         166.359        0.0760202         78.9821        0.0760194          78.982         0.996976         171.376  
7.15                    0.996425         166.263        0.0765629         78.8979        0.0765621         78.8978         0.996932         171.315  
7.2                     0.996383         166.167        0.0771056         78.8136        0.0771048         78.8135         0.996887         171.255  
7.25                     0.99634          166.07        0.0776482         78.7293        0.0776474         78.7292         0.996842         171.194  
7.3                     0.996297         165.974        0.0781906          78.645        0.0781899         78.6449         0.996797         171.134  
7.35                    0.996253         165.878        0.0787331         78.5606        0.0787323         78.5605         0.996752         171.074  
7.4                     0.996208         165.782        0.0792754         78.4762        0.0792746          78.476         0.996705         171.013  
7.45                    0.996163         165.685        0.0798176         78.3917        0.0798169         78.3916         0.996659         170.953  
7.5                     0.996117         165.589        0.0803597         78.3072         0.080359          78.307         0.996612         170.893  
7.55                     0.99607         165.493        0.0809017         78.2226         0.080901         78.2225         0.996565         170.832  
7.6                     0.996023         165.396        0.0814436          78.138         0.081443         78.1379         0.996518         170.772  
7.65                    0.995975           165.3        0.0819854         78.0533        0.0819848         78.0532          0.99647         170.712  
7.7                     0.995927         165.204        0.0825271         77.9687        0.0825265         77.9685         0.996421         170.651  
7.75                    0.995878         165.107        0.0830687         77.8839        0.0830681         77.8838         0.996373         170.591  
7.8                     0.995828         165.011        0.0836102         77.7992        0.0836095         77.7991         0.996324         170.531  
7.85                    0.995777         164.915        0.0841515         77.7144        0.0841509         77.7143         0.996274         170.471  
7.9                     0.995726         164.818        0.0846927         77.6295        0.0846921         77.6294         0.996224          170.41  
7.95                    0.995674         164.722        0.0852338         77.5446        0.0852332         77.5446         0.996174          170.35  
8                       0.995622         164.626        0.0857747         77.4597        0.0857741         77.4596         0.996123          170.29  
8.05                    0.995568          164.53        0.0863155         77.3748        0.0863149         77.3747         0.996072          170.23  
8.1                     0.995514         164.433        0.0868562         77.2898        0.0868556         77.2897         0.996021         170.169  
8.15                     0.99546         164.337        0.0873967         77.2048        0.0873961         77.2047         0.995969         170.109  
8.2                     0.995404         164.241        0.0879371         77.1197        0.0879365         77.1196         0.995917         170.049  
8.25                    0.995348         164.144        0.0884773         77.0346        0.0884768         77.0345         0.995865         169.989  
8.3                     0.995291         164.048        0.0890174         76.9495        0.0890168         76.9494         0.995812         169.928  
8.35                    0.995234         163.952        0.0895573         76.8643        0.0895568         76.8643         0.995759         169.868  
8.4                     0.995175         163.856         0.090097         76.7791        0.0900965         76.7791         0.995705         169.808  
8.45                    0.995116         163.759        0.0906366         76.6939        0.0906361         76.6939         0.995651         169.748  
8.5                     0.995057         163.663         0.091176         76.6087        0.0911756         76.6086         0.995596         169.688  
8.55                    0.994996         163.567        0.0917153         76.5234        0.0917149         76.5233         0.995542         169.628  
8.6                     0.994935         163.471        0.0922544          76.438        0.0922539          76.438         0.995486         169.567  
8.65                    0.994873         163.374        0.0927933         76.3527        0.0927929         76.3526         0.995431         169.507  
8.7                      0.99481         163.278         0.093332         76.2673        0.0933316         76.2673         0.995375         169.447  
8.75                    0.994747         163.182        0.0938706         76.1819        0.0938702         76.1818         0.995318         169.387  
8.8                     0.994682         163.086        0.0944089         76.0965        0.0944085         76.0964         0.995262         169.327  
8.85                    0.994617          162.99        0.0949471          76.011        0.0949467         76.0109         0.995205         169.267  
8.9                     0.994552         162.893        0.0954851         75.9255        0.0954847         75.9254         0.995147         169.207  
8.95                    0.994485         162.797        0.0960229           75.84        0.0960225         75.8399         0.995089         169.147  
9                       0.994418         162.701        0.0965605         75.7544        0.0965601         75.7544         0.995031         169.087  
9.05                     0.99435         162.605        0.0970979         75.6688        0.0970975         75.6688         0.994972         169.027  
9.1                     0.994281         162.509        0.0976351         75.5832        0.0976347         75.5832         0.994913         168.967  
9.15                    0.994211         162.413        0.0981721         75.4976        0.0981717         75.4975         0.994853         168.906  
9.2                     0.994141         162.317        0.0987088         75.4119        0.0987085         75.4119         0.994794         168.846  
9.25                     0.99407          162.22        0.0992454         75.3262        0.0992451         75.3262         0.994733         168.786  
9.3                     0.993998         162.124        0.0997817         75.2405        0.0997815         75.2405         0.994673         168.726  
9.35                    0.993925         162.028         0.100318         75.1548         0.100318         75.1548         0.994612         168.666  
9.4                     0.993852         161.932         0.100854          75.069         0.100854          75.069          0.99455         168.606  
9.45                    0.993778         161.836         0.101389         74.9833         0.101389         74.9832         0.994488         168.547  
9.5                     0.993703          161.74         0.101925         74.8975         0.101925         74.8974         0.994426         168.487  
9.55                    0.993627         161.644          0.10246         74.8116          0.10246         74.8116         0.994364         168.427  
9.6                      0.99355         161.548         0.102995         74.7258         0.102995         74.7258         0.994301         168.367  
9.65                    0.993473         161.452          0.10353         74.6399          0.10353         74.6399         0.994237         168.307  
9.7                     0.993394         161.356         0.104064          74.554         0.104064          74.554         0.994173         168.247  