! TOUCHSTONE file generated by CST MICROWAVE STUDIO
! Date and time: Fri Oct 07 02:29:29 2016
! Project name: tomas_icrh_linear_2016-plasma-Rdiel=200.cst
! Header version: 2015
! Port assignment regex: !\s*Touchstone port\s*([0-9]+)\s*=\s*CST MWS port\s*([0-9]+)\s*\(\"(.*)\"\)(\s*mode\s*([0-9]+))?.*
! Touchstone port assignment:
! Touchstone port 1 = CST MWS port 1 ("")
! Touchstone port 2 = CST MWS port 2 ("")
# MHZ S MA R 50
0                       0.999998            -180     2.23107e-005        -148.325       2.231e-005        -148.328         0.999995             180  
0.05                    0.999996         179.903      0.000537104         91.0592      0.000537105         91.0592         0.999994         179.939  
0.1                     0.999993         179.806        0.0010854         89.9793        0.0010854         89.9793         0.999993         179.877  
0.15                     0.99999         179.709       0.00163335           89.58       0.00163335           89.58         0.999992         179.816  
0.2                     0.999986         179.611       0.00218093         89.3481       0.00218093         89.3481          0.99999         179.755  
0.25                    0.999982         179.514       0.00272813         89.1828       0.00272813         89.1828         0.999988         179.694  
0.3                     0.999978         179.417       0.00327495         89.0507       0.00327495         89.0507         0.999986         179.633  
0.35                    0.999974          179.32       0.00382141         88.9374        0.0038214         88.9374         0.999984         179.572  
0.4                     0.999969         179.223        0.0043675         88.8359        0.0043675         88.8359         0.999981          179.51  
0.45                    0.999964         179.126       0.00491324         88.7422       0.00491324         88.7422         0.999978         179.449  
0.5                     0.999958         179.029       0.00545864          88.654       0.00545864         88.6541         0.999974         179.388  
0.55                    0.999953         178.932        0.0060037         88.5698        0.0060037         88.5698          0.99997         179.327  
0.6                     0.999947         178.835       0.00654844         88.4886       0.00654844         88.4886         0.999966         179.266  
0.65                    0.999941         178.738       0.00709286         88.4096       0.00709286         88.4096         0.999962         179.205  
0.7                     0.999934         178.641       0.00763697         88.3323       0.00763697         88.3323         0.999957         179.144  
0.75                    0.999927         178.544       0.00818079         88.2565       0.00818078         88.2565         0.999952         179.083  
0.8                      0.99992         178.447       0.00872431         88.1818        0.0087243         88.1818         0.999947         179.022  
0.85                    0.999913          178.35       0.00926754          88.108       0.00926754          88.108         0.999942         178.961  
0.9                     0.999905         178.253        0.0098105          88.035       0.00981049          88.035         0.999936           178.9  
0.95                    0.999897         178.157        0.0103532         87.9625        0.0103532         87.9626          0.99993         178.839  
1                       0.999889          178.06        0.0108956         87.8906        0.0108956         87.8907         0.999923         178.778  
1.05                     0.99988         177.963        0.0114378         87.8192        0.0114378         87.8192         0.999917         178.717  
1.1                     0.999871         177.867        0.0119797         87.7481        0.0119797         87.7481          0.99991         178.656  
1.15                    0.999862          177.77        0.0125214         87.6772        0.0125214         87.6773         0.999902         178.595  
1.2                     0.999853         177.673        0.0130629         87.6067        0.0130629         87.6067         0.999895         178.534  
1.25                    0.999843         177.577        0.0136041         87.5363        0.0136041         87.5363         0.999887         178.473  
1.3                     0.999833          177.48        0.0141452         87.4662        0.0141452         87.4662         0.999879         178.412  
1.35                    0.999823         177.383         0.014686         87.3961         0.014686         87.3961          0.99987         178.351  
1.4                     0.999812         177.287        0.0152266         87.3262        0.0152266         87.3262         0.999861          178.29  
1.45                    0.999802          177.19         0.015767         87.2564         0.015767         87.2564         0.999852         178.229  
1.5                     0.999791         177.094        0.0163072         87.1866        0.0163072         87.1866         0.999843         178.168  
1.55                    0.999779         176.997        0.0168473         87.1169        0.0168473         87.1169         0.999833         178.107  
1.6                     0.999768         176.901        0.0173871         87.0472        0.0173871         87.0472         0.999823         178.046  
1.65                    0.999756         176.804        0.0179268         86.9776        0.0179268         86.9776         0.999813         177.986  
1.7                     0.999744         176.708        0.0184664         86.9079        0.0184664         86.9079         0.999803         177.925  
1.75                    0.999731         176.612        0.0190057         86.8383        0.0190057         86.8383         0.999792         177.864  
1.8                     0.999719         176.515         0.019545         86.7686         0.019545         86.7686         0.999781         177.803  
1.85                    0.999706         176.419         0.020084         86.6989         0.020084         86.6989         0.999769         177.742  
1.9                     0.999693         176.323         0.020623         86.6292         0.020623         86.6292         0.999757         177.682  
1.95                    0.999679         176.226        0.0211618         86.5594        0.0211617         86.5594         0.999745         177.621  
2                       0.999665          176.13        0.0217004         86.4896        0.0217004         86.4896         0.999733          177.56  
2.05                    0.999651         176.034        0.0222389         86.4198        0.0222389         86.4198          0.99972         177.499  
2.1                     0.999637         175.938        0.0227774         86.3498        0.0227773         86.3498         0.999707         177.439  
2.15                    0.999623         175.841        0.0233156         86.2798        0.0233156         86.2798         0.999694         177.378  
2.2                     0.999608         175.745        0.0238538         86.2098        0.0238538         86.2098         0.999681         177.317  
2.25                    0.999593         175.649        0.0243919         86.1396        0.0243919         86.1396         0.999667         177.256  
2.3                     0.999577         175.553        0.0249299         86.0694        0.0249299         86.0694         0.999653         177.196  
2.35                    0.999562         175.457        0.0254677          85.999        0.0254677         85.9991         0.999638         177.135  
2.4                     0.999546         175.361        0.0260055         85.9286        0.0260055         85.9286         0.999623         177.074  
2.45                    0.999529         175.265        0.0265432         85.8581        0.0265432         85.8581         0.999608         177.014  
2.5                     0.999513         175.168        0.0270808         85.7875        0.0270808         85.7875         0.999593         176.953  
2.55                    0.999496         175.072        0.0276183         85.7168        0.0276183         85.7168         0.999577         176.893  
2.6                     0.999479         174.976        0.0281557          85.646        0.0281557          85.646         0.999561         176.832  
2.65                    0.999462          174.88         0.028693          85.575         0.028693          85.575         0.999545         176.771  
2.7                     0.999444         174.784        0.0292303          85.504        0.0292303          85.504         0.999529         176.711  
2.75                    0.999426         174.688        0.0297675         85.4328        0.0297675         85.4328         0.999512          176.65  
2.8                     0.999408         174.592        0.0303047         85.3615        0.0303047         85.3616         0.999494          176.59  
2.85                     0.99939         174.496        0.0308417         85.2901        0.0308417         85.2902         0.999477         176.529  
2.9                     0.999371         174.401        0.0313787         85.2186        0.0313787         85.2186         0.999459         176.468  
2.95                    0.999352         174.305        0.0319157          85.147        0.0319157          85.147         0.999441         176.408  
3                       0.999332         174.209        0.0324526         85.0752        0.0324526         85.0752         0.999423         176.347  
3.05                    0.999313         174.113        0.0329894         85.0033        0.0329894         85.0033         0.999404         176.287  
3.1                     0.999293         174.017        0.0335262         84.9312        0.0335262         84.9313         0.999385         176.226  
3.15                    0.999273         173.921         0.034063         84.8591         0.034063         84.8591         0.999366         176.166  
3.2                     0.999252         173.825        0.0345997         84.7868        0.0345997         84.7868         0.999346         176.105  
3.25                    0.999231         173.729        0.0351363         84.7143        0.0351363         84.7143         0.999326         176.045  
3.3                      0.99921         173.634        0.0356729         84.6417        0.0356729         84.6418         0.999306         175.985  
3.35                    0.999188         173.538        0.0362095          84.569        0.0362095          84.569         0.999285         175.924  
3.4                     0.999166         173.442         0.036746         84.4962         0.036746         84.4962         0.999264         175.864  
3.45                    0.999144         173.346        0.0372825         84.4232        0.0372825         84.4232         0.999243         175.803  
3.5                     0.999122         173.251         0.037819           84.35        0.0378189           84.35         0.999221         175.743  
3.55                    0.999099         173.155        0.0383554         84.2767        0.0383554         84.2767           0.9992         175.682  
3.6                     0.999076         173.059        0.0388918         84.2033        0.0388917         84.2033         0.999177         175.622  
3.65                    0.999052         172.963        0.0394281         84.1297        0.0394281         84.1297         0.999155         175.562  
3.7                     0.999028         172.868        0.0399644          84.056        0.0399644          84.056         0.999132         175.501  
3.75                    0.999004         172.772        0.0405007         83.9821        0.0405007         83.9821         0.999109         175.441  
3.8                      0.99898         172.676         0.041037         83.9081         0.041037         83.9081         0.999086         175.381  
3.85                    0.998955         172.581        0.0415732         83.8339        0.0415732         83.8339         0.999062          175.32  
3.9                      0.99893         172.485        0.0421094         83.7596        0.0421094         83.7596         0.999038          175.26  
3.95                    0.998904          172.39        0.0426456         83.6851        0.0426456         83.6851         0.999013           175.2  
4                       0.998878         172.294        0.0431817         83.6105        0.0431817         83.6105         0.998989         175.139  
4.05                    0.998852         172.198        0.0437178         83.5357        0.0437178         83.5357         0.998964         175.079  
4.1                     0.998825         172.103        0.0442539         83.4608        0.0442539         83.4608         0.998938         175.019  
4.15                    0.998798         172.007          0.04479         83.3857          0.04479         83.3857         0.998913         174.959  
4.2                      0.99877         171.912         0.045326         83.3105         0.045326         83.3105         0.998887         174.898  
4.25                    0.998743         171.816         0.045862         83.2351         0.045862         83.2351          0.99886         174.838  
4.3                     0.998714         171.721         0.046398         83.1596         0.046398         83.1596         0.998833         174.778  
4.35                    0.998686         171.625         0.046934         83.0839         0.046934         83.0839         0.998806         174.718  
4.4                     0.998657         171.529        0.0474699         83.0081        0.0474699         83.0081         0.998779         174.657  
4.45                    0.998627         171.433        0.0480101         82.9314        0.0480101         82.9314         0.998751         174.597  
4.5                     0.998597         171.337        0.0485505         82.8546        0.0485505         82.8546         0.998723         174.536  
4.55                    0.998566         171.241        0.0490909         82.7777        0.0490909         82.7777         0.998694         174.475  
4.6                     0.998535         171.144        0.0496313         82.7005        0.0496313         82.7005         0.998665         174.415  
4.65                    0.998504         171.048        0.0501719         82.6232        0.0501719         82.6232         0.998636         174.354  
4.7                     0.998472         170.952        0.0507125         82.5458        0.0507125         82.5458         0.998607         174.293  
4.75                     0.99844         170.855        0.0512531         82.4681        0.0512531         82.4681         0.998577         174.233  
4.8                     0.998407         170.759        0.0517938         82.3903        0.0517938         82.3903         0.998546         174.172  
4.85                    0.998374         170.663        0.0523346         82.3123        0.0523346         82.3123         0.998516         174.111  
4.9                      0.99834         170.566        0.0528755         82.2342        0.0528755         82.2342         0.998485         174.051  
4.95                    0.998306          170.47        0.0534164         82.1559        0.0534164         82.1559         0.998453          173.99  
5                       0.998271         170.373        0.0539573         82.0774        0.0539573         82.0774         0.998422         173.929  
5.05                    0.998236         170.277        0.0544983         81.9988        0.0544983         81.9988         0.998389         173.869  
5.1                       0.9982         170.181        0.0550394           81.92        0.0550394           81.92         0.998357         173.808  
5.15                    0.998164         170.084        0.0555805          81.841        0.0555805          81.841         0.998324         173.747  
5.2                     0.998128         169.988        0.0561217         81.7619        0.0561217         81.7619         0.998291         173.687  
5.25                     0.99809         169.891        0.0566629         81.6826        0.0566629         81.6826         0.998258         173.626  
5.3                     0.998053         169.795        0.0572042         81.6031        0.0572042         81.6031         0.998224         173.565  
5.35                    0.998014         169.699        0.0577455         81.5235        0.0577455         81.5235         0.998189         173.505  
5.4                     0.997976         169.602        0.0582869         81.4437        0.0582869         81.4437         0.998155         173.444  
5.45                    0.997936         169.506        0.0588283         81.3638        0.0588283         81.3638          0.99812         173.383  
5.5                     0.997897         169.409        0.0593697         81.2837        0.0593697         81.2837         0.998085         173.323  
5.55                    0.997856         169.313        0.0599112         81.2034        0.0599112         81.2034         0.998049         173.262  
5.6                     0.997815         169.216        0.0604527          81.123        0.0604527          81.123         0.998013         173.201  
5.65                    0.997774          169.12        0.0609943         81.0424        0.0609943         81.0424         0.997976         173.141  
5.7                     0.997732         169.023        0.0615359         80.9616        0.0615359         80.9616         0.997939          173.08  
5.75                    0.997689         168.927        0.0620775         80.8807        0.0620775         80.8807         0.997902         173.019  
5.8                     0.997646          168.83        0.0626191         80.7996        0.0626191         80.7996         0.997865         172.959  
5.85                    0.997602         168.734        0.0631608         80.7184        0.0631608         80.7184         0.997827         172.898  
5.9                     0.997557         168.637        0.0637025          80.637        0.0637025          80.637         0.997788         172.837  
5.95                    0.997512         168.541        0.0642442         80.5555        0.0642442         80.5555          0.99775         172.777  
6                       0.997467         168.444        0.0647859         80.4738        0.0647859         80.4738         0.997711         172.716  
6.05                     0.99742         168.348        0.0653276          80.392        0.0653276          80.392         0.997671         172.655  
6.1                     0.997373         168.251        0.0658694           80.31        0.0658694           80.31         0.997631         172.595  
6.15                    0.997326         168.154        0.0664111         80.2278        0.0664111         80.2278         0.997591         172.534  
6.2                     0.997278         168.058        0.0669529         80.1455        0.0669529         80.1455          0.99755         172.473  
6.25                    0.997229         167.961        0.0674946         80.0631        0.0674946         80.0631         0.997509         172.413  
6.3                     0.997179         167.865        0.0680364         79.9805        0.0680364         79.9805         0.997468         172.352  
6.35                    0.997129         167.768        0.0685781         79.8977        0.0685781         79.8977         0.997426         172.292  
6.4                     0.997078         167.671        0.0691199         79.8148        0.0691199         79.8148         0.997384         172.231  
6.45                    0.997027         167.575        0.0696616         79.7318        0.0696616         79.7318         0.997341          172.17  
6.5                     0.996974         167.478        0.0702033         79.6486        0.0702033         79.6486         0.997298          172.11  
6.55                    0.996922         167.381         0.070745         79.5652         0.070745         79.5652         0.997255         172.049  
6.6                     0.996868         167.285        0.0712867         79.4818        0.0712867         79.4818         0.997211         171.988  
6.65                    0.996814         167.188        0.0718283         79.3981        0.0718283         79.3981         0.997167         171.928  
6.7                     0.996759         167.092          0.07237         79.3144          0.07237         79.3144         0.997122         171.867  
6.75                    0.996703         166.995        0.0729116         79.2305        0.0729116         79.2305         0.997077         171.806  
6.8                     0.996646         166.898        0.0734531         79.1464        0.0734531         79.1464         0.997032         171.746  
6.85                    0.996589         166.801        0.0739947         79.0622        0.0739947         79.0622         0.996986         171.685  
6.9                     0.996531         166.705        0.0745361         78.9779        0.0745361         78.9779          0.99694         171.625  
6.95                    0.996472         166.608        0.0750776         78.8935        0.0750776         78.8935         0.996893         171.564  
7                       0.996413         166.511         0.075619         78.8089         0.075619         78.8089         0.996846         171.503  
7.05                    0.996352         166.415        0.0761603         78.7241        0.0761603         78.7241         0.996799         171.443  
7.1                     0.996291         166.318        0.0767016         78.6393        0.0767016         78.6393         0.996751         171.382  
7.15                     0.99623         166.221        0.0772429         78.5543        0.0772429         78.5543         0.996703         171.321  
7.2                     0.996167         166.125         0.077784         78.4691         0.077784         78.4691         0.996654         171.261  
7.25                    0.996104         166.028        0.0783251         78.3839        0.0783251         78.3839         0.996605           171.2  
7.3                     0.996039         165.931        0.0788662         78.2985        0.0788662         78.2985         0.996555          171.14  
7.35                    0.995974         165.834        0.0794071          78.213        0.0794071          78.213         0.996505         171.079  
7.4                     0.995909         165.738         0.079948         78.1273         0.079948         78.1273         0.996455         171.018  
7.45                    0.995842         165.641        0.0804888         78.0416        0.0804888         78.0416         0.996404         170.958  
7.5                     0.995774         165.544        0.0810296         77.9557        0.0810296         77.9557         0.996353         170.897  
7.55                    0.995706         165.447        0.0815702         77.8697        0.0815702         77.8697         0.996301         170.837  
7.6                     0.995637         165.351        0.0821107         77.7835        0.0821107         77.7835         0.996249         170.776  
7.65                    0.995567         165.254        0.0826512         77.6973        0.0826512         77.6973         0.996197         170.716  
7.7                     0.995496         165.157        0.0831915         77.6109        0.0831915         77.6109         0.996144         170.655  
7.75                    0.995425          165.06        0.0837318         77.5244        0.0837318         77.5244          0.99609         170.594  
7.8                     0.995352         164.964        0.0842719         77.4378        0.0842719         77.4378         0.996036         170.534  
7.85                    0.995279         164.867         0.084812         77.3511         0.084812         77.3511         0.995982         170.473  
7.9                     0.995204          164.77        0.0853519         77.2642        0.0853519         77.2642         0.995927         170.413  
7.95                    0.995129         164.673        0.0858917         77.1773        0.0858917         77.1773         0.995872         170.352  
8                       0.995053         164.576        0.0864313         77.0902        0.0864313         77.0902         0.995817         170.292  
8.05                    0.994976          164.48        0.0869709          77.003        0.0869709          77.003         0.995761         170.231  
8.1                     0.994898         164.383        0.0875103         76.9157        0.0875103         76.9157         0.995704          170.17  
8.15                    0.994819         164.286        0.0880496         76.8283        0.0880496         76.8283         0.995647          170.11  
8.2                      0.99474         164.189        0.0885887         76.7408        0.0885887         76.7408          0.99559         170.049  
8.25                    0.994659         164.093        0.0891277         76.6532        0.0891277         76.6532         0.995532         169.989  
8.3                     0.994577         163.996        0.0896665         76.5655        0.0896665         76.5655         0.995474         169.928  
8.35                    0.994495         163.899        0.0902052         76.4777        0.0902052         76.4777         0.995415         169.868  
8.4                     0.994412         163.802        0.0907438         76.3897        0.0907438         76.3897         0.995356         169.807  
8.45                    0.994327         163.706        0.0912821         76.3017        0.0912821         76.3017         0.995296         169.747  
8.5                     0.994242         163.609        0.0918204         76.2136        0.0918204         76.2136         0.995236         169.686  
8.55                    0.994156         163.512        0.0923584         76.1254        0.0923584         76.1254         0.995176         169.626  
8.6                     0.994069         163.415        0.0928963          76.037        0.0928963          76.037         0.995115         169.565  
8.65                     0.99398         163.319         0.093434         75.9486         0.093434         75.9486         0.995053         169.505  
8.7                     0.993891         163.222        0.0939715         75.8601        0.0939715         75.8601         0.994991         169.444  
8.75                    0.993801         163.125        0.0945089         75.7715        0.0945088         75.7715         0.994929         169.384  
8.8                      0.99371         163.028         0.095046         75.6828         0.095046         75.6828         0.994866         169.323  
8.85                    0.993618         162.932         0.095583          75.594         0.095583          75.594         0.994803         169.263  
8.9                     0.993525         162.835        0.0961197         75.5051        0.0961197         75.5051         0.994739         169.202  
8.95                    0.993431         162.738        0.0966563         75.4162        0.0966563         75.4161         0.994675         169.142  
9                       0.993336         162.642        0.0971926         75.3271        0.0971926         75.3271          0.99461         169.082  
9.05                     0.99324         162.545        0.0977288         75.2379        0.0977288         75.2379         0.994545         169.021  
9.1                     0.993143         162.448        0.0982647         75.1487        0.0982647         75.1487         0.994479         168.961  
9.15                    0.993045         162.352        0.0988004         75.0594        0.0988004         75.0594         0.994413           168.9  
9.2                     0.992947         162.255        0.0993359           74.97        0.0993359           74.97         0.994346          168.84  
9.25                    0.992847         162.158        0.0998712         74.8805        0.0998712         74.8805         0.994279         168.779  
9.3                     0.992746         162.062         0.100406          74.791         0.100406          74.791         0.994212         168.719  
9.35                    0.992644         161.965         0.100941         74.7013         0.100941         74.7013         0.994144         168.659  
9.4                     0.992541         161.868         0.101476         74.6116         0.101476         74.6116         0.994075         168.598  
9.45                    0.992437         161.772          0.10201         74.5218          0.10201         74.5218         0.994006         168.538  
9.5                     0.992332         161.675         0.102544          74.432         0.102544          74.432         0.993936         168.477  
9.55                    0.992226         161.579         0.103078          74.342         0.103078          74.342         0.993867         168.417  
9.6                     0.992119         161.482         0.103611          74.252         0.103611          74.252         0.993796         168.357  
9.65                     0.99201         161.385         0.104145          74.162         0.104145          74.162         0.993725         168.296  
9.7                     0.991901         161.289         0.104678         74.0718         0.104678         74.0718         0.993654         168.236  