! TOUCHSTONE file generated by CST MICROWAVE STUDIO
! Date and time: Sat Oct 08 01:36:55 2016
! Project name: tomas_icrh_linear_2016-plasma-Rdiel=200.cst
! Header version: 2015
! Port assignment regex: !\s*Touchstone port\s*([0-9]+)\s*=\s*CST MWS port\s*([0-9]+)\s*\(\"(.*)\"\)(\s*mode\s*([0-9]+))?.*
! Touchstone port assignment:
! Touchstone port 1 = CST MWS port 1 ("")
! Touchstone port 2 = CST MWS port 2 ("")
# MHZ S MA R 50
0                       0.999997            -180      2.6122e-006        -163.293     2.61227e-006        -163.293          0.99999        -179.998  
0.05                    0.999997         179.902      0.000554006         89.3244      0.000554004         89.3244          0.99999          179.94  
0.1                     0.999996         179.803        0.0011082         89.1319        0.0011082         89.1319          0.99999         179.877  
0.15                    0.999995         179.705       0.00166182         89.0253       0.00166181         89.0253          0.99999         179.815  
0.2                     0.999993         179.606       0.00221486         88.9402       0.00221486         88.9402          0.99999         179.753  
0.25                    0.999992         179.508       0.00276735         88.8635       0.00276734         88.8635         0.999989         179.691  
0.3                      0.99999          179.41        0.0033193         88.7911       0.00331929         88.7912         0.999988         179.629  
0.35                    0.999988         179.311       0.00387071         88.7211        0.0038707         88.7211         0.999986         179.567  
0.4                     0.999985         179.213       0.00442159         88.6526       0.00442158         88.6526         0.999984         179.505  
0.45                    0.999982         179.115       0.00497196          88.585       0.00497195          88.585         0.999982         179.443  
0.5                     0.999979         179.017       0.00552183          88.518       0.00552182         88.5181          0.99998         179.381  
0.55                    0.999976         178.919       0.00607121         88.4515       0.00607119         88.4516         0.999977          179.32  
0.6                     0.999972         178.821       0.00662011         88.3853       0.00662009         88.3854         0.999974         179.258  
0.65                    0.999968         178.723       0.00716853         88.3194       0.00716851         88.3194         0.999971         179.196  
0.7                     0.999963         178.626       0.00771649         88.2535       0.00771647         88.2536         0.999967         179.134  
0.75                    0.999959         178.528         0.008264         88.1878       0.00826398         88.1878         0.999963         179.073  
0.8                     0.999954          178.43       0.00881107          88.122       0.00881104         88.1221         0.999959         179.011  
0.85                    0.999949         178.333        0.0093577         88.0563       0.00935768         88.0564         0.999954         178.949  
0.9                     0.999943         178.235       0.00990391         87.9906       0.00990388         87.9907         0.999949         178.888  
0.95                    0.999937         178.138        0.0104497         87.9249        0.0104497          87.925         0.999944         178.826  
1                       0.999931          178.04        0.0109951         87.8591        0.0109951         87.8592         0.999938         178.765  
1.05                    0.999924         177.943        0.0115401         87.7933        0.0115401         87.7933         0.999932         178.703  
1.1                     0.999917         177.846        0.0120847         87.7274        0.0120847         87.7274         0.999926         178.642  
1.15                     0.99991         177.748        0.0126289         87.6614        0.0126289         87.6614         0.999919          178.58  
1.2                     0.999903         177.651        0.0131727         87.5952        0.0131727         87.5953         0.999912         178.519  
1.25                    0.999895         177.554        0.0137162          87.529        0.0137162         87.5291         0.999905         178.458  
1.3                     0.999886         177.457        0.0142593         87.4627        0.0142593         87.4627         0.999897         178.396  
1.35                    0.999878          177.36        0.0148021         87.3962        0.0148021         87.3963         0.999889         178.335  
1.4                     0.999869         177.263        0.0153445         87.3297        0.0153445         87.3297         0.999881         178.274  
1.45                    0.999859         177.166        0.0158866         87.2629        0.0158866          87.263         0.999872         178.213  
1.5                      0.99985         177.069        0.0164284         87.1961        0.0164284         87.1961         0.999863         178.152  
1.55                     0.99984         176.972        0.0169698         87.1291        0.0169698         87.1291         0.999854         178.091  
1.6                     0.999829         176.876        0.0175109         87.0619        0.0175109          87.062         0.999844          178.03  
1.65                    0.999818         176.779        0.0180517         86.9946        0.0180517         86.9946         0.999834         177.969  
1.7                     0.999807         176.682        0.0185922         86.9271        0.0185922         86.9272         0.999823         177.908  
1.75                    0.999796         176.586        0.0191325         86.8595        0.0191324         86.8595         0.999813         177.847  
1.8                     0.999784         176.489        0.0196724         86.7917        0.0196723         86.7917         0.999801         177.786  
1.85                    0.999771         176.393         0.020212         86.7237         0.020212         86.7237          0.99979         177.725  
1.9                     0.999758         176.297        0.0207513         86.6555        0.0207513         86.6555         0.999778         177.664  
1.95                    0.999745           176.2        0.0212904         86.5872        0.0212904         86.5872         0.999766         177.603  
2                       0.999732         176.104        0.0218292         86.5186        0.0218291         86.5187         0.999754         177.543  
2.05                    0.999718         176.008        0.0223677         86.4499        0.0223676           86.45         0.999741         177.482  
2.1                     0.999703         175.912        0.0229059          86.381        0.0229059          86.381         0.999728         177.421  
2.15                    0.999689         175.816        0.0234439         86.3119        0.0234439          86.312         0.999714         177.361  
2.2                     0.999673          175.72        0.0239816         86.2426        0.0239816         86.2427           0.9997           177.3  
2.25                    0.999658         175.624        0.0245191         86.1731        0.0245191         86.1732         0.999686         177.239  
2.3                     0.999642         175.528        0.0250563         86.1035        0.0250563         86.1035         0.999671         177.179  
2.35                    0.999625         175.432        0.0255933         86.0336        0.0255933         86.0336         0.999656         177.118  
2.4                     0.999608         175.336        0.0261301         85.9635          0.02613         85.9635         0.999641         177.058  
2.45                    0.999591          175.24        0.0266665         85.8932        0.0266665         85.8932         0.999625         176.998  
2.5                     0.999573         175.145        0.0272028         85.8227        0.0272028         85.8227         0.999609         176.937  
2.55                    0.999554         175.049        0.0277388          85.752        0.0277388          85.752         0.999593         176.877  
2.6                     0.999536         174.953        0.0282746          85.681        0.0282746         85.6811         0.999576         176.817  
2.65                    0.999516         174.858        0.0288102         85.6099        0.0288101         85.6099         0.999559         176.756  
2.7                     0.999497         174.762        0.0293455         85.5385        0.0293455         85.5386         0.999541         176.696  
2.75                    0.999476         174.667        0.0298806          85.467        0.0298806          85.467         0.999523         176.636  
2.8                     0.999456         174.572        0.0304154         85.3952        0.0304154         85.3952         0.999505         176.576  
2.85                    0.999434         174.476        0.0309501         85.3232        0.0309501         85.3232         0.999487         176.516  
2.9                     0.999413         174.381        0.0314845          85.251        0.0314845          85.251         0.999468         176.456  
2.95                    0.999391         174.286        0.0320187         85.1786        0.0320187         85.1786         0.999448         176.396  
3                       0.999368         174.191        0.0325527         85.1059        0.0325527         85.1059         0.999429         176.336  
3.05                    0.999345         174.096        0.0330864         85.0331        0.0330864         85.0331         0.999409         176.276  
3.1                     0.999321         174.001        0.0336199           84.96        0.0336199           84.96         0.999388         176.216  
3.15                    0.999297         173.906        0.0341533         84.8867        0.0341532         84.8867         0.999367         176.156  
3.2                     0.999272         173.811        0.0346863         84.8131        0.0346863         84.8131         0.999346         176.096  
3.25                    0.999246         173.716        0.0352192         84.7394        0.0352192         84.7394         0.999325         176.037  
3.3                     0.999221         173.621        0.0357519         84.6654        0.0357518         84.6654         0.999303         175.977  
3.35                    0.999194         173.526        0.0362843         84.5912        0.0362843         84.5912          0.99928         175.917  
3.4                     0.999167         173.432        0.0368165         84.5168        0.0368165         84.5168         0.999258         175.857  
3.45                     0.99914         173.337        0.0373485         84.4422        0.0373484         84.4422         0.999235         175.798  
3.5                     0.999112         173.242        0.0378802         84.3673        0.0378802         84.3673         0.999211         175.738  
3.55                    0.999083         173.148        0.0384117         84.2922        0.0384117         84.2922         0.999187         175.679  
3.6                     0.999054         173.053         0.038943         84.2169         0.038943         84.2169         0.999163         175.619  
3.65                    0.999024         172.959        0.0394741         84.1414        0.0394741         84.1414         0.999138          175.56  
3.7                     0.998993         172.865         0.040005         84.0657         0.040005         84.0657         0.999113           175.5  
3.75                    0.998962          172.77        0.0405356         83.9897        0.0405356         83.9897         0.999088         175.441  
3.8                     0.998931         172.676         0.041066         83.9135         0.041066         83.9135         0.999062         175.382  
3.85                    0.998899         172.582        0.0415961         83.8371        0.0415961         83.8371         0.999036         175.323  
3.9                     0.998865         172.485        0.0421409         83.7584        0.0421409         83.7584         0.999009         175.262  
3.95                    0.998831         172.388        0.0426858         83.6793        0.0426858         83.6793         0.998982         175.201  
4                       0.998796         172.291        0.0432308            83.6        0.0432308            83.6         0.998954          175.14  
4.05                    0.998761         172.195         0.043776         83.5204         0.043776         83.5204         0.998925         175.079  
4.1                     0.998724         172.098        0.0443213         83.4405        0.0443213         83.4405         0.998896         175.018  
4.15                    0.998687         172.001        0.0448667         83.3604        0.0448667         83.3604         0.998867         174.957  
4.2                      0.99865         171.904        0.0454123           83.28        0.0454123           83.28         0.998837         174.896  
4.25                    0.998612         171.807         0.045958         83.1993         0.045958         83.1993         0.998807         174.835  
4.3                     0.998573          171.71        0.0465038         83.1184        0.0465038         83.1184         0.998777         174.774  
4.35                    0.998533         171.613        0.0470497         83.0372        0.0470497         83.0372         0.998746         174.713  
4.4                     0.998493         171.516        0.0475958         82.9557        0.0475958         82.9557         0.998714         174.652  
4.45                    0.998452         171.419        0.0481419          82.874        0.0481419          82.874         0.998682         174.591  
4.5                      0.99841         171.323        0.0486882          82.792        0.0486882          82.792          0.99865          174.53  
4.55                    0.998367         171.226        0.0492345         82.7098        0.0492345         82.7098         0.998617          174.47  
4.6                     0.998324         171.129         0.049781         82.6273         0.049781         82.6273         0.998584         174.409  
4.65                     0.99828         171.032        0.0503276         82.5445        0.0503276         82.5445         0.998551         174.348  
4.7                     0.998235         170.935        0.0508742         82.4615        0.0508742         82.4615         0.998517         174.287  
4.75                    0.998189         170.838        0.0514209         82.3783        0.0514209         82.3783         0.998482         174.226  
4.8                     0.998143         170.741        0.0519678         82.2948        0.0519678         82.2948         0.998447         174.165  
4.85                    0.998096         170.644        0.0525147          82.211        0.0525147          82.211         0.998412         174.104  
4.9                     0.998048         170.547        0.0530616          82.127        0.0530616          82.127         0.998376         174.043  
4.95                    0.997999          170.45        0.0536087         82.0428        0.0536087         82.0427          0.99834         173.982  
5                        0.99795         170.353        0.0541558         81.9583        0.0541558         81.9582         0.998303         173.921  
5.05                    0.997899         170.256        0.0547029         81.8735        0.0547029         81.8735         0.998266          173.86  
5.1                     0.997848         170.159        0.0552501         81.7885        0.0552501         81.7885         0.998229         173.799  
5.15                    0.997796         170.062        0.0557974         81.7033        0.0557974         81.7033         0.998191         173.738  
5.2                     0.997744         169.964        0.0563447         81.6179        0.0563447         81.6179         0.998152         173.678  
5.25                     0.99769         169.867        0.0568921         81.5322        0.0568921         81.5322         0.998113         173.617  
5.3                     0.997636          169.77        0.0574395         81.4463        0.0574395         81.4463         0.998074         173.556  
5.35                     0.99758         169.673        0.0579869         81.3601        0.0579869         81.3601         0.998034         173.495  
5.4                     0.997524         169.576        0.0585343         81.2737        0.0585343         81.2737         0.997994         173.434  
5.45                    0.997467         169.479        0.0590818         81.1871        0.0590818         81.1871         0.997953         173.373  
5.5                     0.997409         169.382        0.0596293         81.1003        0.0596293         81.1003         0.997912         173.312  
5.55                    0.997351         169.285        0.0601768         81.0133        0.0601768         81.0133          0.99787         173.251  
5.6                     0.997291         169.188        0.0607242          80.926        0.0607242          80.926         0.997828          173.19  
5.65                    0.997231         169.091        0.0612717         80.8385        0.0612717         80.8385         0.997785         173.129  
5.7                     0.997169         168.993        0.0618192         80.7508        0.0618192         80.7508         0.997742         173.068  
5.75                    0.997107         168.896        0.0623667         80.6629        0.0623667         80.6629         0.997699         173.008  
5.8                     0.997044         168.799        0.0629141         80.5748        0.0629141         80.5748         0.997655         172.947  
5.85                     0.99698         168.702        0.0634615         80.4864        0.0634615         80.4864         0.997611         172.886  
5.9                     0.996915         168.605        0.0640089         80.3979        0.0640089         80.3979         0.997566         172.825  
5.95                    0.996849         168.508        0.0645563         80.3092        0.0645563         80.3091         0.997521         172.764  
6                       0.996782         168.411        0.0651036         80.2202        0.0651036         80.2202         0.997475         172.703  
6.05                    0.996715         168.313        0.0656509         80.1311        0.0656509         80.1311         0.997429         172.642  
6.1                     0.996646         168.216        0.0661981         80.0417        0.0661981         80.0417         0.997382         172.581  
6.15                    0.996577         168.119        0.0667452         79.9522        0.0667452         79.9522         0.997335          172.52  
6.2                     0.996506         168.022        0.0672923         79.8625        0.0672923         79.8624         0.997287          172.46  
6.25                    0.996435         167.925        0.0678393         79.7726        0.0678393         79.7725         0.997239         172.399  
6.3                     0.996362         167.827        0.0683862         79.6824        0.0683862         79.6824          0.99719         172.338  
6.35                    0.996289          167.73        0.0689331         79.5922        0.0689331         79.5921         0.997141         172.277  
6.4                     0.996214         167.633        0.0694798         79.5017        0.0694798         79.5017         0.997092         172.216  
6.45                    0.996139         167.536        0.0700265          79.411        0.0700265          79.411         0.997042         172.155  
6.5                     0.996063         167.439        0.0705731         79.3202        0.0705731         79.3202         0.996992         172.095  
6.55                    0.995986         167.342        0.0711195         79.2292        0.0711195         79.2292         0.996941         172.034  
6.6                     0.995907         167.244        0.0716658          79.138        0.0716658          79.138         0.996889         171.973  
6.65                    0.995828         167.147         0.072212         79.0467         0.072212         79.0466         0.996837         171.912  
6.7                     0.995748          167.05        0.0727581         78.9551        0.0727581         78.9551         0.996785         171.851  
6.75                    0.995667         166.953        0.0733041         78.8634        0.0733041         78.8634         0.996732         171.791  
6.8                     0.995585         166.856        0.0738499         78.7716        0.0738499         78.7716         0.996679          171.73  
6.85                    0.995501         166.758        0.0743956         78.6796        0.0743956         78.6796         0.996625         171.669  
6.9                     0.995417         166.661        0.0749411         78.5874        0.0749411         78.5874         0.996571         171.608  
6.95                    0.995332         166.564        0.0754864         78.4951        0.0754864         78.4951         0.996517         171.547  
7                       0.995246         166.467        0.0760316         78.4026        0.0760316         78.4026         0.996461         171.487  
7.05                    0.995158          166.37        0.0765766           78.31        0.0765766           78.31         0.996406         171.426  
7.1                      0.99507         166.272        0.0771215         78.2172        0.0771215         78.2172          0.99635         171.365  
7.15                    0.994981         166.175        0.0776661         78.1243        0.0776661         78.1243         0.996293         171.305  
7.2                      0.99489         166.078        0.0782106         78.0312        0.0782106         78.0312         0.996236         171.244  
7.25                    0.994799         165.981        0.0787549          77.938        0.0787549          77.938         0.996179         171.183  
7.3                     0.994706         165.884         0.079299         77.8447        0.0792989         77.8447         0.996121         171.122  
7.35                    0.994613         165.787        0.0798428         77.7512        0.0798428         77.7512         0.996062         171.062  
7.4                     0.994518          165.69        0.0803865         77.6576        0.0803865         77.6576         0.996003         171.001  
7.45                    0.994423         165.592        0.0809299         77.5638        0.0809299         77.5638         0.995944          170.94  
7.5                     0.994326         165.495        0.0814731         77.4699        0.0814731         77.4699         0.995884          170.88  
7.55                    0.994228         165.398        0.0820161         77.3759        0.0820161         77.3759         0.995824         170.819  
7.6                     0.994129         165.301        0.0825588         77.2818        0.0825588         77.2818         0.995763         170.758  
7.65                     0.99403         165.204        0.0831013         77.1876        0.0831013         77.1875         0.995702         170.698  
7.7                     0.993929         165.107        0.0836435         77.0932        0.0836435         77.0932          0.99564         170.637  
7.75                    0.993827          165.01        0.0841855         76.9987        0.0841855         76.9987         0.995577         170.576  
7.8                     0.993724         164.913        0.0847272         76.9041        0.0847272         76.9041         0.995515         170.516  
7.85                     0.99362         164.816        0.0852686         76.8094        0.0852686         76.8094         0.995451         170.455  
7.9                     0.993514         164.719        0.0858098         76.7146        0.0858098         76.7145         0.995388         170.395  
7.95                    0.993408         164.621        0.0863507         76.6196        0.0863507         76.6196         0.995324         170.334  
8                       0.993301         164.524        0.0868913         76.5246        0.0868913         76.5246         0.995259         170.274  
8.05                    0.993192         164.427        0.0874316         76.4295        0.0874316         76.4294         0.995194         170.213  
8.1                     0.993083          164.33        0.0879716         76.3342        0.0879716         76.3342         0.995128         170.152  
8.15                    0.992972         164.233        0.0885113         76.2389        0.0885113         76.2389         0.995062         170.092  
8.2                     0.992861         164.136        0.0890507         76.1434        0.0890506         76.1434         0.994995         170.031  
8.25                    0.992748         164.039        0.0895897         76.0479        0.0895897         76.0479         0.994928         169.971  
8.3                     0.992634         163.942        0.0901285         75.9523        0.0901285         75.9523         0.994861          169.91  
8.35                    0.992519         163.846        0.0906669         75.8566        0.0906669         75.8566         0.994792          169.85  
8.4                     0.992403         163.749         0.091205         75.7608         0.091205         75.7608         0.994724          169.79  
8.45                    0.992286         163.652        0.0917427         75.6649        0.0917427         75.6649         0.994655         169.729  
8.5                     0.992168         163.555        0.0922801          75.569        0.0922801          75.569         0.994585         169.669  
8.55                    0.992048         163.458        0.0928171         75.4729        0.0928171         75.4729         0.994515         169.608  
8.6                     0.991928         163.361        0.0933538         75.3768        0.0933538         75.3768         0.994445         169.548  
8.65                    0.991806         163.264        0.0938901         75.2806        0.0938901         75.2806         0.994374         169.487  
8.7                     0.991684         163.167        0.0944261         75.1843        0.0944261         75.1843         0.994302         169.427  
8.75                     0.99156          163.07        0.0949617          75.088        0.0949617          75.088          0.99423         169.367  
8.8                     0.991436         162.974        0.0954969         74.9916        0.0954969         74.9916         0.994158         169.306  
8.85                     0.99131         162.877        0.0960317         74.8951        0.0960317         74.8951         0.994085         169.246  
8.9                     0.991183          162.78        0.0965661         74.7986        0.0965661         74.7986         0.994012         169.186  
8.95                    0.991055         162.683        0.0971001          74.702        0.0971001          74.702         0.993938         169.125  
9                       0.990926         162.587        0.0976338         74.6053        0.0976338         74.6053         0.993863         169.065  
9.05                    0.990796          162.49         0.098167         74.5086         0.098167         74.5086         0.993788         169.005  
9.1                     0.990664         162.393        0.0986998         74.4118        0.0986998         74.4118         0.993713         168.945  
9.15                    0.990532         162.296        0.0992322          74.315        0.0992322          74.315         0.993637         168.884  
9.2                     0.990399           162.2        0.0997642         74.2181        0.0997642         74.2181         0.993561         168.824  
9.25                    0.990264         162.103         0.100296         74.1212         0.100296         74.1212         0.993484         168.764  
9.3                     0.990128         162.006         0.100827         74.0242         0.100827         74.0242         0.993406         168.704  
9.35                    0.989992          161.91         0.101357         73.9272         0.101357         73.9272         0.993329         168.644  
9.4                     0.989854         161.813         0.101888         73.8301         0.101888         73.8301          0.99325         168.584  
9.45                    0.989715         161.717         0.102417          73.733         0.102417          73.733         0.993171         168.523  
9.5                     0.989576          161.62         0.102947         73.6358         0.102947         73.6358         0.993092         168.463  
9.55                    0.989435         161.524         0.103476         73.5386         0.103476         73.5386         0.993012         168.403  
9.6                     0.989293         161.427         0.104004         73.4414         0.104004         73.4414         0.992932         168.343  
9.65                     0.98915         161.331         0.104532         73.3441         0.104532         73.3441         0.992851         168.283  
9.7                     0.989006         161.234          0.10506         73.2469          0.10506         73.2468          0.99277         168.223  