! TOUCHSTONE file generated by CST MICROWAVE STUDIO
! Date and time: Wed Oct 05 22:47:27 2016
! Project name: tomas_icrh_linear_2016-plasma-Rdiel=200.cst
! Header version: 2015
! Port assignment regex: !\s*Touchstone port\s*([0-9]+)\s*=\s*CST MWS port\s*([0-9]+)\s*\(\"(.*)\"\)(\s*mode\s*([0-9]+))?.*
! Touchstone port assignment:
! Touchstone port 1 = CST MWS port 1 ("")
! Touchstone port 2 = CST MWS port 2 ("")
# MHZ S MA R 50
0                       0.999995             180      3.3928e-006        -132.438      3.3927e-006        -132.439         0.999995        -179.999  
0.05                    0.999994         179.903      0.000541449         90.1803      0.000541449         90.1803         0.999994         179.939  
0.1                     0.999993         179.806       0.00108539         89.9796       0.00108539         89.9796         0.999993         179.878  
0.15                    0.999992         179.709       0.00162916         89.8601       0.00162916         89.8601         0.999992         179.817  
0.2                      0.99999         179.612       0.00217282         89.7608       0.00217282         89.7608          0.99999         179.756  
0.25                    0.999988         179.515       0.00271636         89.6695       0.00271636         89.6695         0.999988         179.695  
0.3                     0.999986         179.418       0.00325979         89.5823       0.00325979         89.5823         0.999986         179.633  
0.35                    0.999983         179.321        0.0038031         89.4974        0.0038031         89.4974         0.999984         179.572  
0.4                     0.999981         179.224       0.00434629          89.414       0.00434629          89.414         0.999981         179.511  
0.45                    0.999977         179.127       0.00488937         89.3316       0.00488937         89.3316         0.999978          179.45  
0.5                     0.999974          179.03       0.00543232         89.2498       0.00543232         89.2498         0.999975         179.389  
0.55                     0.99997         178.933       0.00597516         89.1685       0.00597516         89.1685         0.999971         179.328  
0.6                     0.999966         178.837       0.00651787         89.0876       0.00651787         89.0876         0.999967         179.267  
0.65                    0.999962          178.74       0.00706047          89.007       0.00706047          89.007         0.999963         179.205  
0.7                     0.999957         178.643       0.00760294         88.9267       0.00760294         88.9267         0.999958         179.144  
0.75                    0.999953         178.546       0.00814528         88.8465       0.00814528         88.8465         0.999953         179.083  
0.8                     0.999947          178.45       0.00868751         88.7665       0.00868751         88.7665         0.999948         179.022  
0.85                    0.999942         178.353       0.00922961         88.6867        0.0092296         88.6867         0.999943         178.961  
0.9                     0.999936         178.256       0.00977158         88.6069       0.00977158         88.6069         0.999937           178.9  
0.95                     0.99993          178.16        0.0103134         88.5272        0.0103134         88.5272         0.999931         178.839  
1                       0.999924         178.063        0.0108551         88.4477        0.0108551         88.4477         0.999925         178.778  
1.05                    0.999917         177.966        0.0113967         88.3682        0.0113967         88.3682         0.999918         178.717  
1.1                      0.99991          177.87        0.0119382         88.2887        0.0119382         88.2887         0.999912         178.656  
1.15                    0.999903         177.773        0.0124795         88.2094        0.0124795         88.2094         0.999904         178.595  
1.2                     0.999895         177.677        0.0130207           88.13        0.0130207           88.13         0.999897         178.534  
1.25                    0.999887          177.58        0.0135618         88.0508        0.0135618         88.0508         0.999889         178.473  
1.3                     0.999879         177.483        0.0141027         87.9715        0.0141027         87.9715         0.999881         178.413  
1.35                    0.999871         177.387        0.0146436         87.8924        0.0146436         87.8924         0.999873         178.352  
1.4                     0.999862          177.29        0.0151842         87.8132        0.0151842         87.8132         0.999865         178.291  
1.45                    0.999853         177.194        0.0157248         87.7341        0.0157248         87.7341         0.999856          178.23  
1.5                     0.999844         177.098        0.0162652         87.6551        0.0162652         87.6551         0.999847         178.169  
1.55                    0.999834         177.001        0.0168055          87.576        0.0168055          87.576         0.999837         178.108  
1.6                     0.999824         176.905        0.0173456          87.497        0.0173456          87.497         0.999827         178.047  
1.65                    0.999814         176.808        0.0178856          87.418        0.0178856          87.418         0.999817         177.986  
1.7                     0.999804         176.712        0.0184254         87.3391        0.0184254         87.3391         0.999807         177.926  
1.75                    0.999793         176.616        0.0189652         87.2602        0.0189652         87.2602         0.999797         177.865  
1.8                     0.999782         176.519        0.0195047         87.1813        0.0195047         87.1813         0.999786         177.804  
1.85                    0.999771         176.423        0.0200442         87.1024        0.0200442         87.1024         0.999775         177.743  
1.9                     0.999759         176.327        0.0205835         87.0236        0.0205835         87.0236         0.999763         177.683  
1.95                    0.999747         176.231        0.0211226         86.9448        0.0211226         86.9448         0.999751         177.622  
2                       0.999735         176.134        0.0216617          86.866        0.0216617          86.866         0.999739         177.561  
2.05                    0.999722         176.038        0.0222005         86.7872        0.0222005         86.7872         0.999727           177.5  
2.1                     0.999709         175.942        0.0227393         86.7084        0.0227393         86.7084         0.999715          177.44  
2.15                    0.999696         175.846        0.0232779         86.6297        0.0232779         86.6297         0.999702         177.379  
2.2                     0.999683          175.75        0.0238163          86.551        0.0238163          86.551         0.999689         177.318  
2.25                    0.999669         175.654        0.0243546         86.4723        0.0243546         86.4723         0.999675         177.258  
2.3                     0.999655         175.558        0.0248927         86.3936        0.0248927         86.3936         0.999661         177.197  
2.35                    0.999641         175.461        0.0254307          86.315        0.0254307          86.315         0.999647         177.136  
2.4                     0.999626         175.365        0.0259686         86.2364        0.0259686         86.2364         0.999633         177.076  
2.45                    0.999612         175.269        0.0265063         86.1578        0.0265063         86.1578         0.999619         177.015  
2.5                     0.999596         175.173        0.0270438         86.0792        0.0270438         86.0792         0.999604         176.955  
2.55                    0.999581         175.077        0.0275812         86.0006        0.0275812         86.0006         0.999589         176.894  
2.6                     0.999565         174.982        0.0281185         85.9221        0.0281185         85.9221         0.999573         176.833  
2.65                    0.999549         174.886        0.0286556         85.8435        0.0286556         85.8435         0.999558         176.773  
2.7                     0.999533          174.79        0.0291925          85.765        0.0291925          85.765         0.999542         176.712  
2.75                    0.999516         174.694        0.0297293         85.6865        0.0297293         85.6865         0.999525         176.652  
2.8                     0.999499         174.598         0.030266          85.608         0.030266         85.6081         0.999509         176.591  
2.85                    0.999482         174.502        0.0308025         85.5296        0.0308025         85.5296         0.999492         176.531  
2.9                     0.999465         174.406        0.0313388         85.4512        0.0313388         85.4512         0.999475          176.47  
2.95                    0.999447          174.31         0.031875         85.3727         0.031875         85.3727         0.999457          176.41  
3                       0.999429         174.215         0.032411         85.2943         0.032411         85.2943          0.99944          176.35  
3.05                    0.999411         174.119        0.0329468         85.2159        0.0329468         85.2159         0.999422         176.289  
3.1                     0.999392         174.023        0.0334825         85.1376        0.0334825         85.1376         0.999403         176.229  
3.15                    0.999373         173.928        0.0340181         85.0592        0.0340181         85.0592         0.999385         176.168  
3.2                     0.999354         173.832        0.0345534         84.9809        0.0345534         84.9809         0.999366         176.108  
3.25                    0.999334         173.736        0.0350887         84.9026        0.0350887         84.9026         0.999347         176.048  
3.3                     0.999314         173.641        0.0356237         84.8243        0.0356237         84.8243         0.999328         175.987  
3.35                    0.999294         173.545        0.0361586          84.746        0.0361586          84.746         0.999308         175.927  
3.4                     0.999274         173.449        0.0366933         84.6677        0.0366933         84.6677         0.999288         175.866  
3.45                    0.999253         173.354        0.0372279         84.5895        0.0372279         84.5895         0.999268         175.806  
3.5                     0.999232         173.258        0.0377623         84.5113        0.0377623         84.5113         0.999247         175.746  
3.55                    0.999211         173.163        0.0382965         84.4331        0.0382965         84.4331         0.999227         175.686  
3.6                      0.99919         173.067        0.0388306         84.3549        0.0388306         84.3549         0.999205         175.625  
3.65                    0.999168         172.972        0.0393645         84.2767        0.0393645         84.2767         0.999184         175.565  
3.7                     0.999146         172.876        0.0398983         84.1985        0.0398983         84.1985         0.999162         175.505  
3.75                    0.999123         172.781        0.0404318         84.1204        0.0404318         84.1204         0.999141         175.445  
3.8                     0.999101         172.686        0.0409652         84.0422        0.0409652         84.0422         0.999118         175.384  
3.85                    0.999078          172.59        0.0414985         83.9641        0.0414985         83.9641         0.999096         175.324  
3.9                     0.999054         172.495        0.0420315          83.886        0.0420315          83.886         0.999073         175.264  
3.95                    0.999031           172.4        0.0425644          83.808        0.0425644          83.808          0.99905         175.204  
4                       0.999007         172.304        0.0430971         83.7299        0.0430971         83.7299         0.999027         175.144  
4.05                    0.998983         172.209        0.0436297         83.6519        0.0436297         83.6519         0.999003         175.084  
4.1                     0.998958         172.114        0.0441621         83.5738        0.0441621         83.5738         0.998979         175.023  
4.15                    0.998934         172.018        0.0446943         83.4958        0.0446943         83.4958         0.998955         174.963  
4.2                     0.998909         171.923        0.0452263         83.4178        0.0452263         83.4178         0.998931         174.903  
4.25                    0.998883         171.828        0.0457582         83.3399        0.0457582         83.3399         0.998906         174.843  
4.3                     0.998858         171.733        0.0462898         83.2619        0.0462898         83.2619         0.998881         174.783  
4.35                    0.998832         171.638        0.0468213          83.184        0.0468213          83.184         0.998856         174.723  
4.4                     0.998806         171.542         0.047357         83.1054         0.047357         83.1054          0.99883         174.663  
4.45                    0.998779         171.446        0.0478926         83.0268        0.0478926         83.0268         0.998804         174.602  
4.5                     0.998752          171.35        0.0484282         82.9483        0.0484282         82.9483         0.998778         174.542  
4.55                    0.998725         171.254        0.0489636         82.8697        0.0489636         82.8697         0.998751         174.481  
4.6                     0.998697         171.158         0.049499         82.7912         0.049499         82.7912         0.998724          174.42  
4.65                    0.998669         171.063        0.0500343         82.7126        0.0500343         82.7126         0.998697          174.36  
4.7                     0.998641         170.967        0.0505695         82.6341        0.0505695         82.6341          0.99867         174.299  
4.75                    0.998613         170.871        0.0511046         82.5555        0.0511046         82.5555         0.998642         174.239  
4.8                     0.998584         170.775        0.0516397          82.477        0.0516397          82.477         0.998614         174.178  
4.85                    0.998555         170.679        0.0521746         82.3984        0.0521746         82.3984         0.998585         174.118  
4.9                     0.998526         170.583        0.0527095         82.3199        0.0527095         82.3199         0.998557         174.058  
4.95                    0.998496         170.488        0.0532442         82.2413        0.0532442         82.2413         0.998528         173.997  
5                       0.998466         170.392        0.0537789         82.1628        0.0537789         82.1628         0.998499         173.937  
5.05                    0.998436         170.296        0.0543135         82.0843        0.0543135         82.0843         0.998469         173.876  
5.1                     0.998405           170.2         0.054848         82.0057         0.054848         82.0057         0.998439         173.816  
5.15                    0.998375         170.104        0.0553824         81.9272        0.0553824         81.9272         0.998409         173.755  
5.2                     0.998343         170.009        0.0559167         81.8487        0.0559167         81.8487         0.998379         173.695  
5.25                    0.998312         169.913         0.056451         81.7702         0.056451         81.7702         0.998348         173.634  
5.3                      0.99828         169.817        0.0569851         81.6916        0.0569851         81.6916         0.998318         173.574  
5.35                    0.998248         169.721        0.0575191         81.6131        0.0575191         81.6131         0.998286         173.513  
5.4                     0.998216         169.625        0.0580531         81.5346         0.058053         81.5346         0.998255         173.453  
5.45                    0.998183          169.53        0.0585869         81.4561        0.0585869         81.4561         0.998223         173.393  
5.5                      0.99815         169.434        0.0591206         81.3776        0.0591206         81.3776         0.998191         173.332  
5.55                    0.998117         169.338        0.0596543         81.2991        0.0596543         81.2991         0.998159         173.272  
5.6                     0.998084         169.243        0.0601878         81.2206        0.0601878         81.2206         0.998126         173.211  
5.65                     0.99805         169.147        0.0607213         81.1421        0.0607213         81.1421         0.998093         173.151  
5.7                     0.998016         169.051        0.0612546         81.0635        0.0612546         81.0635          0.99806          173.09  
5.75                    0.997981         168.955        0.0617879         80.9851        0.0617879         80.9851         0.998027          173.03  
5.8                     0.997947          168.86         0.062321         80.9066         0.062321         80.9066         0.997993          172.97  
5.85                    0.997912         168.764         0.062854         80.8281         0.062854         80.8281         0.997959         172.909  
5.9                     0.997876         168.668         0.063387         80.7496         0.063387         80.7496         0.997924         172.849  
5.95                    0.997841         168.573        0.0639198         80.6711        0.0639198         80.6711          0.99789         172.788  
6                       0.997805         168.477        0.0644525         80.5926        0.0644525         80.5926         0.997855         172.728  
6.05                    0.997769         168.381        0.0649852         80.5141        0.0649852         80.5141          0.99782         172.668  
6.1                     0.997732         168.286        0.0655177         80.4356        0.0655177         80.4356         0.997784         172.607  
6.15                    0.997695          168.19        0.0660501         80.3572        0.0660501         80.3572         0.997748         172.547  
6.2                     0.997658         168.095        0.0665824         80.2787        0.0665824         80.2787         0.997712         172.487  
6.25                    0.997621         167.999        0.0671146         80.2002        0.0671146         80.2002         0.997676         172.426  
6.3                     0.997583         167.903        0.0676466         80.1217        0.0676466         80.1217         0.997639         172.366  
6.35                    0.997545         167.808        0.0681786         80.0433        0.0681786         80.0433         0.997602         172.306  
6.4                     0.997507         167.712        0.0687105         79.9648        0.0687105         79.9648         0.997565         172.245  
6.45                    0.997468         167.617        0.0692422         79.8864        0.0692422         79.8864         0.997528         172.185  
6.5                     0.997429         167.521        0.0697738         79.8079        0.0697738         79.8079          0.99749         172.125  
6.55                     0.99739         167.425        0.0703053         79.7294        0.0703053         79.7294         0.997452         172.064  
6.6                      0.99735          167.33        0.0708367          79.651        0.0708367          79.651         0.997414         172.004  
6.65                    0.997311         167.234         0.071368         79.5726         0.071368         79.5726         0.997375         171.944  
6.7                      0.99727         167.139        0.0718992         79.4941        0.0718992         79.4941         0.997336         171.883  
6.75                     0.99723         167.043        0.0724302         79.4157        0.0724302         79.4157         0.997297         171.823  
6.8                     0.997189         166.948        0.0729612         79.3372        0.0729612         79.3372         0.997258         171.763  
6.85                    0.997148         166.852         0.073492         79.2588         0.073492         79.2588         0.997218         171.702  
6.9                     0.997107         166.757        0.0740227         79.1804        0.0740227         79.1804         0.997178         171.642  
6.95                    0.997065         166.661        0.0745532         79.1019        0.0745532         79.1019         0.997138         171.582  
7                       0.997023         166.566        0.0750837         79.0235        0.0750837         79.0235         0.997097         171.522  
7.05                    0.996981          166.47         0.075614         78.9451         0.075614         78.9451         0.997056         171.461  
7.1                     0.996939         166.375        0.0761442         78.8667        0.0761442         78.8667         0.997015         171.401  
7.15                    0.996896         166.279        0.0766743         78.7883        0.0766743         78.7883         0.996973         171.341  
7.2                     0.996853         166.184        0.0772043         78.7098        0.0772042         78.7098         0.996932          171.28  
7.25                    0.996809         166.089        0.0777341         78.6314        0.0777341         78.6314          0.99689          171.22  
7.3                     0.996766         165.993        0.0782638          78.553        0.0782638          78.553         0.996847          171.16  
7.35                    0.996722         165.898        0.0787934         78.4746        0.0787934         78.4746         0.996805           171.1  
7.4                     0.996677         165.802        0.0793228         78.3962        0.0793228         78.3962         0.996762          171.04  
7.45                    0.996633         165.707        0.0798521         78.3178        0.0798521         78.3178         0.996719         170.979  
7.5                     0.996588         165.612        0.0803813         78.2394        0.0803813         78.2394         0.996675         170.919  
7.55                    0.996542         165.516        0.0809104         78.1611        0.0809104         78.1611         0.996632         170.859  
7.6                     0.996497         165.421        0.0814393         78.0827        0.0814393         78.0827         0.996588         170.799  
7.65                    0.996451         165.326        0.0819681         78.0043        0.0819681         78.0043         0.996544         170.738  
7.7                     0.996405          165.23        0.0824968         77.9259        0.0824968         77.9259         0.996499         170.678  
7.75                    0.996358         165.135        0.0830253         77.8475        0.0830253         77.8475         0.996454         170.618  
7.8                     0.996312          165.04        0.0835537         77.7692        0.0835537         77.7692         0.996409         170.558  
7.85                    0.996265         164.944         0.084082         77.6908         0.084082         77.6908         0.996364         170.498  
7.9                     0.996217         164.849        0.0846101         77.6124        0.0846101         77.6124         0.996318         170.438  
7.95                     0.99617         164.754        0.0851381         77.5341        0.0851381         77.5341         0.996272         170.377  
8                       0.996122         164.658        0.0856659         77.4557        0.0856659         77.4557         0.996226         170.317  
8.05                    0.996073         164.563        0.0861936         77.3774        0.0861936         77.3774         0.996179         170.257  
8.1                     0.996025         164.468        0.0867212          77.299        0.0867212          77.299         0.996133         170.197  
8.15                    0.995976         164.373        0.0872486         77.2207        0.0872486         77.2207         0.996086         170.137  
8.2                     0.995927         164.277        0.0877759         77.1423        0.0877759         77.1423         0.996038         170.077  
8.25                    0.995877         164.182        0.0883031          77.064        0.0883031          77.064         0.995991         170.017  
8.3                     0.995827         164.087        0.0888301         76.9857        0.0888301         76.9857         0.995943         169.956  
8.35                    0.995777         163.992         0.089357         76.9073         0.089357         76.9073         0.995894         169.896  
8.4                     0.995727         163.897        0.0898837          76.829        0.0898837          76.829         0.995846         169.836  
8.45                    0.995676         163.801        0.0904103         76.7507        0.0904103         76.7507         0.995797         169.776  
8.5                     0.995625         163.706        0.0909367         76.6724        0.0909367         76.6724         0.995748         169.716  
8.55                    0.995574         163.611         0.091463         76.5941         0.091463         76.5941         0.995699         169.656  
8.6                     0.995522         163.516        0.0919891         76.5158        0.0919891         76.5158         0.995649         169.596  
8.65                     0.99547         163.421        0.0925151         76.4375        0.0925151         76.4375           0.9956         169.536  
8.7                     0.995418         163.326        0.0930409         76.3592        0.0930409         76.3592         0.995549         169.476  
8.75                    0.995366         163.231        0.0935666         76.2809        0.0935666         76.2809         0.995499         169.416  
8.8                     0.995313         163.135        0.0940922         76.2026        0.0940922         76.2026         0.995448         169.356  
8.85                     0.99526          163.04        0.0946176         76.1243        0.0946176         76.1243         0.995397         169.296  
8.9                     0.995206         162.945        0.0951428          76.046        0.0951428          76.046         0.995346         169.236  
8.95                    0.995152          162.85        0.0956679         75.9677        0.0956679         75.9677         0.995295         169.176  
9                       0.995098         162.755        0.0961928         75.8895        0.0961928         75.8895         0.995243         169.116  
9.05                    0.995044          162.66        0.0967176         75.8112        0.0967176         75.8112         0.995191         169.056  
9.1                     0.994989         162.565        0.0972422         75.7329        0.0972422         75.7329         0.995138         168.996  
9.15                    0.994934          162.47        0.0977667         75.6547        0.0977667         75.6547         0.995086         168.936  
9.2                     0.994879         162.375         0.098291         75.5764         0.098291         75.5764         0.995033         168.876  
9.25                    0.994824          162.28        0.0988152         75.4982        0.0988152         75.4982          0.99498         168.816  
9.3                     0.994768         162.185        0.0993391         75.4199        0.0993391         75.4199         0.994926         168.756  
9.35                    0.994712          162.09         0.099863         75.3417         0.099863         75.3417         0.994872         168.696  
9.4                     0.994655         161.995         0.100387         75.2634         0.100387         75.2634         0.994818         168.636  
9.45                    0.994598           161.9          0.10091         75.1852          0.10091         75.1852         0.994764         168.576  
9.5                     0.994541         161.805         0.101434          75.107         0.101434          75.107         0.994709         168.516  
9.55                    0.994484          161.71         0.101957         75.0288         0.101957         75.0288         0.994655         168.456  
9.6                     0.994426         161.616          0.10248         74.9505          0.10248         74.9505           0.9946         168.396  
9.65                    0.994368         161.521         0.103003         74.8723         0.103003         74.8723         0.994544         168.336  
9.7                      0.99431         161.426         0.103525         74.7941         0.103525         74.7941         0.994488         168.276  