! TOUCHSTONE file generated by CST MICROWAVE STUDIO
! Date and time: Fri Oct 07 08:24:58 2016
! Project name: tomas_icrh_linear_2016-plasma-Rdiel=200.cst
! Header version: 2015
! Port assignment regex: !\s*Touchstone port\s*([0-9]+)\s*=\s*CST MWS port\s*([0-9]+)\s*\(\"(.*)\"\)(\s*mode\s*([0-9]+))?.*
! Touchstone port assignment:
! Touchstone port 1 = CST MWS port 1 ("")
! Touchstone port 2 = CST MWS port 2 ("")
# MHZ S MA R 50
0                       0.999999            -180     3.09649e-006        -164.468     3.09659e-006        -164.461          0.99999        -179.998  
0.05                    0.999993         179.901      0.000554337          89.153      0.000554336          89.153         0.999989         179.939  
0.1                     0.999988         179.803       0.00110895         88.9409       0.00110895         88.9409         0.999989         179.877  
0.15                    0.999982         179.704       0.00166299          88.831       0.00166299          88.831         0.999988         179.815  
0.2                     0.999976         179.605       0.00221645         88.7465       0.00221645         88.7465         0.999987         179.753  
0.25                     0.99997         179.507       0.00276935          88.672       0.00276935         88.6721         0.999985         179.691  
0.3                     0.999964         179.408       0.00332171         88.6026       0.00332171         88.6026         0.999983         179.628  
0.35                    0.999958         179.309       0.00387353         88.5359       0.00387353         88.5359         0.999981         179.566  
0.4                     0.999951         179.211       0.00442483         88.4708       0.00442483         88.4709         0.999979         179.504  
0.45                    0.999945         179.113       0.00497561         88.4069       0.00497561         88.4069         0.999976         179.442  
0.5                     0.999938         179.014       0.00552588         88.3436       0.00552588         88.3436         0.999973          179.38  
0.55                     0.99993         178.916       0.00607567         88.2808       0.00607566         88.2808         0.999969         179.318  
0.6                     0.999923         178.818       0.00662497         88.2183       0.00662496         88.2183         0.999966         179.257  
0.65                    0.999916          178.72       0.00717379          88.156       0.00717379          88.156         0.999962         179.195  
0.7                     0.999908         178.622       0.00772216         88.0937       0.00772215         88.0938         0.999958         179.133  
0.75                      0.9999         178.524       0.00827006         88.0316       0.00827006         88.0316         0.999953         179.071  
0.8                     0.999892         178.426       0.00881753         87.9694       0.00881753         87.9694         0.999948         179.009  
0.85                    0.999884         178.329       0.00936455         87.9072       0.00936455         87.9073         0.999943         178.948  
0.9                     0.999875         178.231       0.00991115          87.845       0.00991115          87.845         0.999938         178.886  
0.95                    0.999867         178.133        0.0104573         87.7826        0.0104573         87.7827         0.999932         178.824  
1                       0.999858         178.036        0.0110031         87.7202        0.0110031         87.7202         0.999926         178.763  
1.05                    0.999849         177.938        0.0115485         87.6577        0.0115485         87.6577         0.999919         178.701  
1.1                      0.99984         177.841        0.0120934          87.595        0.0120934          87.595         0.999913          178.64  
1.15                    0.999831         177.743         0.012638         87.5322         0.012638         87.5322         0.999906         178.578  
1.2                     0.999821         177.646        0.0131822         87.4692        0.0131822         87.4693         0.999898         178.517  
1.25                    0.999811         177.549        0.0137261         87.4061        0.0137261         87.4062         0.999891         178.456  
1.3                     0.999801         177.452        0.0142695         87.3429        0.0142695         87.3429         0.999883         178.394  
1.35                    0.999791         177.355        0.0148126         87.2794        0.0148126         87.2795         0.999875         178.333  
1.4                      0.99978         177.258        0.0153554         87.2158        0.0153554         87.2159         0.999866         178.272  
1.45                     0.99977         177.161        0.0158978          87.152        0.0158978         87.1521         0.999857          178.21  
1.5                     0.999759         177.064        0.0164399         87.0881        0.0164399         87.0881         0.999848         178.149  
1.55                    0.999748         176.967        0.0169816         87.0239        0.0169816         87.0239         0.999839         178.088  
1.6                     0.999737          176.87         0.017523         86.9596         0.017523         86.9596         0.999829         178.027  
1.65                    0.999725         176.773        0.0180641          86.895        0.0180641          86.895         0.999819         177.966  
1.7                     0.999713         176.677        0.0186049         86.8303        0.0186049         86.8303         0.999808         177.905  
1.75                    0.999701          176.58        0.0191453         86.7653        0.0191453         86.7654         0.999797         177.844  
1.8                     0.999689         176.484        0.0196855         86.7002        0.0196855         86.7002         0.999786         177.783  
1.85                    0.999677         176.387        0.0202253         86.6349        0.0202253         86.6349         0.999775         177.722  
1.9                     0.999664         176.291        0.0207648         86.5693        0.0207648         86.5693         0.999763         177.661  
1.95                    0.999651         176.195        0.0213041         86.5036        0.0213041         86.5036         0.999751           177.6  
2                       0.999638         176.098         0.021843         86.4376         0.021843         86.4376         0.999739          177.54  
2.05                    0.999625         176.002        0.0223817         86.3714        0.0223817         86.3715         0.999726         177.479  
2.1                     0.999611         175.906        0.0229201         86.3051        0.0229201         86.3051         0.999713         177.418  
2.15                    0.999597          175.81        0.0234582         86.2385        0.0234582         86.2385           0.9997         177.358  
2.2                     0.999583         175.714         0.023996         86.1716         0.023996         86.1717         0.999686         177.297  
2.25                    0.999568         175.618        0.0245336         86.1046        0.0245336         86.1046         0.999673         177.236  
2.3                     0.999554         175.522        0.0250709         86.0374        0.0250708         86.0374         0.999658         177.176  
2.35                    0.999539         175.426        0.0256079         85.9699        0.0256079         85.9699         0.999644         177.115  
2.4                     0.999523          175.33        0.0261446         85.9023        0.0261446         85.9023         0.999629         177.055  
2.45                    0.999508         175.235        0.0266811         85.8344        0.0266811         85.8344         0.999614         176.994  
2.5                     0.999492         175.139        0.0272173         85.7663        0.0272173         85.7663         0.999598         176.934  
2.55                    0.999476         175.043        0.0277533         85.6979        0.0277533          85.698         0.999582         176.874  
2.6                     0.999459         174.948         0.028289         85.6294         0.028289         85.6294         0.999566         176.813  
2.65                    0.999442         174.852        0.0288245         85.5606        0.0288245         85.5607         0.999549         176.753  
2.7                     0.999425         174.757        0.0293597         85.4917        0.0293597         85.4917         0.999532         176.693  
2.75                    0.999408         174.662        0.0298946         85.4225        0.0298946         85.4225         0.999515         176.633  
2.8                      0.99939         174.566        0.0304293         85.3531        0.0304293         85.3531         0.999498         176.573  
2.85                    0.999372         174.471        0.0309638         85.2834        0.0309638         85.2834          0.99948         176.513  
2.9                     0.999354         174.376         0.031498         85.2136         0.031498         85.2136         0.999462         176.453  
2.95                    0.999335         174.281        0.0320319         85.1435        0.0320319         85.1435         0.999443         176.392  
3                       0.999316         174.186        0.0325656         85.0732        0.0325656         85.0732         0.999424         176.333  
3.05                    0.999296         174.091        0.0330991         85.0027        0.0330991         85.0027         0.999405         176.273  
3.1                     0.999276         173.996        0.0336323          84.932        0.0336323          84.932         0.999385         176.213  
3.15                    0.999256         173.901        0.0341653         84.8611        0.0341653         84.8611         0.999365         176.153  
3.2                     0.999236         173.806         0.034698         84.7899         0.034698         84.7899         0.999345         176.093  
3.25                    0.999215         173.711        0.0352305         84.7186        0.0352305         84.7186         0.999325         176.033  
3.3                     0.999194         173.616        0.0357627          84.647        0.0357627          84.647         0.999304         175.973  
3.35                    0.999172         173.522        0.0362947         84.5752        0.0362947         84.5752         0.999283         175.914  
3.4                      0.99915         173.427        0.0368265         84.5032        0.0368265         84.5032         0.999261         175.854  
3.45                    0.999127         173.333         0.037358          84.431         0.037358          84.431         0.999239         175.795  
3.5                     0.999104         173.238        0.0378892         84.3586        0.0378892         84.3586         0.999217         175.735  
3.55                    0.999081         173.144        0.0384202          84.286        0.0384202          84.286         0.999194         175.675  
3.6                     0.999057         173.049         0.038951         84.2131         0.038951         84.2131         0.999171         175.616  
3.65                    0.999033         172.955        0.0394815         84.1401        0.0394815         84.1401         0.999148         175.556  
3.7                     0.999009         172.861        0.0400118         84.0668        0.0400118         84.0668         0.999124         175.497  
3.75                    0.998984         172.766        0.0405418         83.9934        0.0405418         83.9934           0.9991         175.438  
3.8                     0.998958         172.672        0.0410715         83.9197        0.0410715         83.9197         0.999076         175.378  
3.85                    0.998932         172.578         0.041601         83.8459         0.041601         83.8459         0.999051         175.319  
3.9                     0.998906         172.484        0.0421303         83.7718        0.0421303         83.7718         0.999026          175.26  
3.95                    0.998879          172.39        0.0426593         83.6975        0.0426593         83.6975         0.999001         175.201  
4                       0.998852         172.296         0.043188         83.6231         0.043188         83.6231         0.998975         175.141  
4.05                    0.998823         172.199        0.0437315         83.5462        0.0437315         83.5462         0.998948         175.081  
4.1                     0.998794         172.103        0.0442751         83.4691        0.0442751         83.4691         0.998921          175.02  
4.15                    0.998765         172.006        0.0448188         83.3917        0.0448188         83.3917         0.998893         174.959  
4.2                     0.998735         171.909        0.0453627         83.3141        0.0453627         83.3141         0.998865         174.898  
4.25                    0.998704         171.813        0.0459066         83.2363        0.0459066         83.2363         0.998837         174.837  
4.3                     0.998673         171.716        0.0464506         83.1582        0.0464506         83.1582         0.998808         174.777  
4.35                    0.998641          171.62        0.0469947         83.0798        0.0469947         83.0798         0.998779         174.716  
4.4                     0.998609         171.523         0.047539         83.0012        0.0475389         83.0012          0.99875         174.655  
4.45                    0.998576         171.426        0.0480833         82.9224        0.0480832         82.9224          0.99872         174.594  
4.5                     0.998542         171.329        0.0486276         82.8433        0.0486276         82.8433         0.998689         174.533  
4.55                    0.998508         171.233        0.0491721          82.764        0.0491721          82.764         0.998659         174.472  
4.6                     0.998474         171.136        0.0497167         82.6845        0.0497167         82.6845         0.998628         174.412  
4.65                    0.998438         171.039        0.0502613         82.6047        0.0502613         82.6047         0.998596         174.351  
4.7                     0.998403         170.943         0.050806         82.5247         0.050806         82.5247         0.998564          174.29  
4.75                    0.998366         170.846        0.0513508         82.4445        0.0513508         82.4445         0.998532         174.229  
4.8                     0.998329         170.749        0.0518956          82.364        0.0518956          82.364         0.998499         174.168  
4.85                    0.998291         170.652        0.0524406         82.2833        0.0524406         82.2833         0.998466         174.107  
4.9                     0.998253         170.555        0.0529855         82.2024        0.0529855         82.2024         0.998432         174.047  
4.95                    0.998214         170.459        0.0535306         82.1212        0.0535306         82.1212         0.998398         173.986  
5                       0.998174         170.362        0.0540757         82.0399        0.0540757         82.0399         0.998364         173.925  
5.05                    0.998133         170.265        0.0546208         81.9583        0.0546208         81.9583         0.998329         173.864  
5.1                     0.998092         170.168         0.055166         81.8765         0.055166         81.8765         0.998294         173.803  
5.15                    0.998051         170.071        0.0557113         81.7944        0.0557113         81.7944         0.998259         173.743  
5.2                     0.998008         169.975        0.0562566         81.7122        0.0562565         81.7122         0.998223         173.682  
5.25                    0.997965         169.878        0.0568019         81.6297        0.0568019         81.6297         0.998186         173.621  
5.3                     0.997921         169.781        0.0573472         81.5471        0.0573472         81.5471         0.998149          173.56  
5.35                    0.997876         169.684        0.0578926         81.4642        0.0578926         81.4642         0.998112         173.499  
5.4                     0.997831         169.587         0.058438         81.3811         0.058438         81.3811         0.998074         173.438  
5.45                    0.997785          169.49        0.0589835         81.2978        0.0589835         81.2978         0.998036         173.378  
5.5                     0.997738         169.393        0.0595289         81.2143        0.0595289         81.2143         0.997998         173.317  
5.55                     0.99769         169.296        0.0600744         81.1306        0.0600744         81.1306         0.997959         173.256  
5.6                     0.997642         169.199        0.0606199         81.0467        0.0606199         81.0467         0.997919         173.195  
5.65                    0.997593         169.102        0.0611653         80.9626        0.0611653         80.9626          0.99788         173.134  
5.7                     0.997543         169.005        0.0617108         80.8783        0.0617108         80.8783          0.99784         173.074  
5.75                    0.997492         168.908        0.0622563         80.7938        0.0622563         80.7938         0.997799         173.013  
5.8                     0.997441         168.812        0.0628018         80.7091        0.0628018         80.7091         0.997758         172.952  
5.85                    0.997389         168.715        0.0633472         80.6242        0.0633472         80.6242         0.997716         172.891  
5.9                     0.997336         168.618        0.0638927         80.5392        0.0638927         80.5392         0.997674         172.831  
5.95                    0.997282         168.521        0.0644381         80.4539        0.0644381         80.4539         0.997632          172.77  
6                       0.997227         168.424        0.0649835         80.3685        0.0649835         80.3685         0.997589         172.709  
6.05                    0.997172         168.327        0.0655289         80.2828        0.0655289         80.2828         0.997546         172.648  
6.1                     0.997115          168.23        0.0660742          80.197        0.0660742          80.197         0.997502         172.587  
6.15                    0.997058         168.133        0.0666195         80.1111        0.0666195         80.1111         0.997458         172.527  
6.2                        0.997         168.036        0.0671648         80.0249        0.0671648         80.0249         0.997414         172.466  
6.25                    0.996941         167.938          0.06771         79.9385          0.06771         79.9385         0.997369         172.405  
6.3                     0.996881         167.841        0.0682552          79.852        0.0682552          79.852         0.997324         172.344  
6.35                    0.996821         167.744        0.0688003         79.7653        0.0688003         79.7653         0.997278         172.284  
6.4                     0.996759         167.647        0.0693453         79.6785        0.0693453         79.6785         0.997232         172.223  
6.45                    0.996697          167.55        0.0698903         79.5915        0.0698903         79.5915         0.997185         172.162  
6.5                     0.996634         167.453        0.0704352         79.5043        0.0704352         79.5043         0.997138         172.101  
6.55                    0.996569         167.356        0.0709801         79.4169        0.0709801         79.4169          0.99709         172.041  
6.6                     0.996504         167.259        0.0715248         79.3294        0.0715248         79.3294         0.997042          171.98  
6.65                    0.996438         167.162        0.0720695         79.2417        0.0720695         79.2417         0.996994         171.919  
6.7                     0.996371         167.065        0.0726141         79.1539        0.0726141         79.1539         0.996945         171.858  
6.75                    0.996304         166.968        0.0731586         79.0659        0.0731586         79.0659         0.996896         171.798  
6.8                     0.996235         166.871         0.073703         78.9777         0.073703         78.9777         0.996846         171.737  
6.85                    0.996165         166.774        0.0742473         78.8894        0.0742472         78.8894         0.996796         171.676  
6.9                     0.996094         166.677        0.0747914          78.801        0.0747914          78.801         0.996745         171.615  
6.95                    0.996023          166.58        0.0753355         78.7124        0.0753355         78.7124         0.996694         171.555  
7                        0.99595         166.483        0.0758794         78.6236        0.0758794         78.6236         0.996643         171.494  
7.05                    0.995877         166.386        0.0764233         78.5347        0.0764233         78.5347         0.996591         171.433  
7.1                     0.995802         166.288         0.076967         78.4457         0.076967         78.4457         0.996538         171.373  
7.15                    0.995727         166.191        0.0775105         78.3565        0.0775105         78.3565         0.996485         171.312  
7.2                      0.99565         166.094         0.078054         78.2672         0.078054         78.2672         0.996432         171.251  
7.25                    0.995573         165.997        0.0785973         78.1777        0.0785972         78.1777         0.996378         171.191  
7.3                     0.995495           165.9        0.0791404         78.0881        0.0791404         78.0881         0.996324          171.13  
7.35                    0.995415         165.803        0.0796834         77.9984        0.0796834         77.9984          0.99627         171.069  
7.4                     0.995335         165.706        0.0802262         77.9086        0.0802262         77.9086         0.996215         171.009  
7.45                    0.995253         165.609        0.0807689         77.8186        0.0807689         77.8186         0.996159         170.948  
7.5                     0.995171         165.512        0.0813114         77.7285        0.0813114         77.7285         0.996103         170.887  
7.55                    0.995088         165.415        0.0818537         77.6382        0.0818537         77.6382         0.996047         170.827  
7.6                     0.995003         165.318        0.0823959         77.5479        0.0823958         77.5479          0.99599         170.766  
7.65                    0.994918         165.221        0.0829378         77.4574        0.0829378         77.4574         0.995933         170.705  
7.7                     0.994831         165.124        0.0834796         77.3668        0.0834796         77.3668         0.995875         170.645  
7.75                    0.994744         165.027        0.0840212          77.276        0.0840212          77.276         0.995817         170.584  
7.8                     0.994655          164.93        0.0845626         77.1852        0.0845626         77.1852         0.995758         170.524  
7.85                    0.994566         164.833        0.0851038         77.0943        0.0851038         77.0942         0.995699         170.463  
7.9                     0.994475         164.736        0.0856448         77.0032        0.0856448         77.0032          0.99564         170.402  
7.95                    0.994383         164.639        0.0861856          76.912        0.0861856          76.912          0.99558         170.342  
8                       0.994291         164.542        0.0867261         76.8207        0.0867261         76.8207         0.995519         170.281  
8.05                    0.994197         164.445        0.0872665         76.7293        0.0872665         76.7293         0.995458         170.221  
8.1                     0.994102         164.348        0.0878066         76.6378        0.0878066         76.6378         0.995397          170.16  
8.15                    0.994006         164.251        0.0883465         76.5462        0.0883465         76.5462         0.995335         170.099  
8.2                     0.993909         164.154        0.0888862         76.4545        0.0888861         76.4545         0.995273         170.039  
8.25                    0.993811         164.057        0.0894256         76.3627        0.0894256         76.3627         0.995211         169.978  
8.3                     0.993712          163.96        0.0899647         76.2708        0.0899647         76.2708         0.995148         169.918  
8.35                    0.993612         163.863        0.0905037         76.1788        0.0905037         76.1788         0.995084         169.857  
8.4                      0.99351         163.766        0.0910423         76.0867        0.0910423         76.0867          0.99502         169.797  
8.45                    0.993408         163.669        0.0915807         75.9945        0.0915807         75.9945         0.994956         169.736  
8.5                     0.993305         163.572        0.0921189         75.9022        0.0921189         75.9022         0.994891         169.676  
8.55                      0.9932         163.475        0.0926568         75.8099        0.0926568         75.8099         0.994826         169.615  
8.6                     0.993094         163.379        0.0931944         75.7174        0.0931944         75.7174          0.99476         169.555  
8.65                    0.992988         163.282        0.0937317         75.6249        0.0937317         75.6249         0.994694         169.494  
8.7                      0.99288         163.185        0.0942687         75.5322        0.0942687         75.5322         0.994627         169.434  
8.75                    0.992771         163.088        0.0948055         75.4395        0.0948055         75.4395          0.99456         169.373  
8.8                     0.992661         162.991         0.095342         75.3467         0.095342         75.3467         0.994493         169.313  
8.85                     0.99255         162.894        0.0958781         75.2539        0.0958781         75.2539         0.994425         169.253  
8.9                     0.992438         162.798         0.096414         75.1609         0.096414         75.1609         0.994357         169.192  
8.95                    0.992324         162.701        0.0969496         75.0679        0.0969496         75.0679         0.994288         169.132  
9                        0.99221         162.604        0.0974848         74.9748        0.0974848         74.9748         0.994219         169.071  
9.05                    0.992095         162.508        0.0980198         74.8816        0.0980198         74.8816         0.994149         169.011  
9.1                     0.991978         162.411        0.0985544         74.7884        0.0985544         74.7884         0.994079         168.951  
9.15                     0.99186         162.314        0.0990887         74.6951        0.0990887         74.6951         0.994009          168.89  
9.2                     0.991741         162.218        0.0996227         74.6017        0.0996227         74.6017         0.993938          168.83  
9.25                    0.991621         162.121         0.100156         74.5083         0.100156         74.5083         0.993867          168.77  
9.3                       0.9915         162.024          0.10069         74.4148          0.10069         74.4148         0.993795         168.709  
9.35                    0.991378         161.928         0.101223         74.3212         0.101223         74.3212         0.993723         168.649  
9.4                     0.991255         161.831         0.101755         74.2276         0.101755         74.2276         0.993651         168.589  
9.45                    0.991131         161.735         0.102287         74.1339         0.102287         74.1339         0.993578         168.528  
9.5                     0.991005         161.638         0.102819         74.0401         0.102819         74.0401         0.993504         168.468  
9.55                    0.990879         161.542         0.103351         73.9463         0.103351         73.9463         0.993431         168.408  
9.6                     0.990751         161.445         0.103882         73.8525         0.103882         73.8525         0.993356         168.347  
9.65                    0.990622         161.349         0.104413         73.7586         0.104413         73.7586         0.993282         168.287  
9.7                     0.990492         161.252         0.104943         73.6646         0.104943         73.6646         0.993207         168.227  