! TOUCHSTONE file generated by CST MICROWAVE STUDIO
! Date and time: Thu Oct 06 06:59:52 2016
! Project name: tomas_icrh_linear_2016-plasma-Rdiel=200.cst
! Header version: 2015
! Port assignment regex: !\s*Touchstone port\s*([0-9]+)\s*=\s*CST MWS port\s*([0-9]+)\s*\(\"(.*)\"\)(\s*mode\s*([0-9]+))?.*
! Touchstone port assignment:
! Touchstone port 1 = CST MWS port 1 ("")
! Touchstone port 2 = CST MWS port 2 ("")
# MHZ S MA R 50
0                              1        -179.998      0.000170509         159.252      0.000170543         159.245         0.999999            -180  
0.05                           1         179.904      0.000578393         97.8159      0.000578411         97.8168         0.999997         179.939  
0.1                     0.999993         179.806        0.0010854         89.9794        0.0010854         89.9794         0.999993         179.877  
0.15                    0.999983         179.708       0.00159943         87.2129       0.00159941         87.2125          0.99999         179.816  
0.2                     0.999973         179.609       0.00211506          85.836       0.00211504         85.8354         0.999986         179.755  
0.25                    0.999963         179.511       0.00263118         85.0312       0.00263114         85.0305         0.999982         179.693  
0.3                     0.999952         179.413        0.0031474         84.5157       0.00314735         84.5149         0.999978         179.632  
0.35                     0.99994         179.315       0.00366362         84.1661       0.00366355         84.1652         0.999973          179.57  
0.4                     0.999928         179.217       0.00417978         83.9196        0.0041797         83.9188         0.999968         179.509  
0.45                    0.999916         179.119       0.00469587         83.7415       0.00469578         83.7407         0.999962         179.447  
0.5                     0.999903         179.021       0.00521192         83.6106       0.00521182         83.6098         0.999956         179.386  
0.55                    0.999889         178.923       0.00572794         83.5135       0.00572784         83.5126          0.99995         179.325  
0.6                     0.999875         178.825       0.00624397         83.4411       0.00624385         83.4402         0.999944         179.263  
0.65                    0.999861         178.727       0.00676001         83.3872       0.00675989         83.3863         0.999937         179.202  
0.7                     0.999846         178.629       0.00727611         83.3473       0.00727598         83.3465          0.99993          179.14  
0.75                     0.99983         178.531        0.0077923         83.3182       0.00779215         83.3175         0.999922         179.079  
0.8                     0.999814         178.434       0.00830858         83.2975       0.00830843         83.2968         0.999915         179.018  
0.85                    0.999798         178.336       0.00882501         83.2833       0.00882484         83.2826         0.999906         178.956  
0.9                     0.999781         178.238       0.00934158         83.2741       0.00934141         83.2734         0.999898         178.895  
0.95                    0.999764          178.14       0.00985834         83.2689       0.00985816         83.2682         0.999889         178.834  
1                       0.999746         178.043        0.0103753         83.2666        0.0103751          83.266          0.99988         178.773  
1.05                    0.999728         177.945        0.0108925         83.2667        0.0108923          83.266         0.999871         178.711  
1.1                      0.99971         177.848        0.0114099         83.2685        0.0114097         83.2678         0.999861          178.65  
1.15                    0.999691          177.75        0.0119276         83.2715        0.0119274         83.2709         0.999851         178.589  
1.2                     0.999672         177.652        0.0124455         83.2753        0.0124453         83.2748         0.999841         178.528  
1.25                    0.999652         177.555        0.0129638         83.2797        0.0129636         83.2792          0.99983         178.466  
1.3                     0.999632         177.457        0.0134823         83.2844        0.0134821         83.2838          0.99982         178.405  
1.35                    0.999612          177.36        0.0140012          83.289         0.014001         83.2885         0.999808         178.344  
1.4                     0.999591         177.263        0.0145204         83.2935        0.0145201          83.293         0.999797         178.283  
1.45                    0.999569         177.165        0.0150399         83.2977        0.0150397         83.2972         0.999785         178.222  
1.5                     0.999548         177.068        0.0155598         83.3014        0.0155596         83.3009         0.999773          178.16  
1.55                    0.999526         176.971        0.0160801         83.3046        0.0160798         83.3041          0.99976         178.099  
1.6                     0.999504         176.873        0.0166007         83.3071        0.0166004         83.3067         0.999748         178.038  
1.65                    0.999481         176.776        0.0171217         83.3089        0.0171214         83.3084         0.999735         177.977  
1.7                     0.999458         176.679        0.0176431         83.3098        0.0176428         83.3094         0.999721         177.916  
1.75                    0.999435         176.582        0.0181648         83.3099        0.0181646         83.3095         0.999708         177.855  
1.8                     0.999411         176.485         0.018687         83.3091        0.0186868         83.3088         0.999694         177.794  
1.85                    0.999387         176.388        0.0192096         83.3074        0.0192093          83.307          0.99968         177.733  
1.9                     0.999363         176.291        0.0197326         83.3047        0.0197323         83.3043         0.999665         177.672  
1.95                    0.999338         176.194         0.020256         83.3009        0.0202557         83.3006          0.99965         177.611  
2                       0.999313         176.097        0.0207798         83.2962        0.0207795         83.2959         0.999635          177.55  
2.05                    0.999288             176         0.021304         83.2904        0.0213038         83.2901          0.99962         177.489  
2.1                     0.999262         175.903        0.0218287         83.2835        0.0218284         83.2832         0.999604         177.427  
2.15                    0.999236         175.806        0.0223538         83.2756        0.0223535         83.2753         0.999588         177.366  
2.2                      0.99921         175.709        0.0228793         83.2666         0.022879         83.2664         0.999572         177.305  
2.25                    0.999184         175.612        0.0234052         83.2566        0.0234049         83.2563         0.999555         177.245  
2.3                     0.999157         175.515        0.0239315         83.2454        0.0239313         83.2452         0.999539         177.184  
2.35                     0.99913         175.419        0.0244583         83.2332         0.024458         83.2329         0.999522         177.123  
2.4                     0.999103         175.322        0.0249855         83.2199        0.0249852         83.2197         0.999504         177.062  
2.45                    0.999076         175.225        0.0255131         83.2055        0.0255128         83.2053         0.999487         177.001  
2.5                     0.999048         175.128        0.0260412         83.1901        0.0260409         83.1899         0.999469          176.94  
2.55                     0.99902         175.032        0.0265696         83.1736        0.0265694         83.1734          0.99945         176.879  
2.6                     0.998992         174.935        0.0270985          83.156        0.0270982         83.1558         0.999432         176.818  
2.65                    0.998964         174.839        0.0276278         83.1374        0.0276276         83.1372         0.999413         176.757  
2.7                     0.998935         174.742        0.0281576         83.1177        0.0281573         83.1176         0.999394         176.696  
2.75                    0.998906         174.646        0.0286877          83.097        0.0286874         83.0969         0.999375         176.635  
2.8                     0.998877         174.549        0.0292183         83.0753         0.029218         83.0752         0.999355         176.574  
2.85                    0.998848         174.453        0.0297492         83.0526        0.0297489         83.0524         0.999336         176.514  
2.9                     0.998819         174.356        0.0302806         83.0289        0.0302803         83.0287         0.999316         176.453  
2.95                    0.998789          174.26        0.0308124         83.0041        0.0308121          83.004         0.999295         176.392  
3                       0.998759         174.163        0.0313445         82.9784        0.0313443         82.9783         0.999275         176.331  
3.05                    0.998729         174.067        0.0318771         82.9518        0.0318768         82.9516         0.999254          176.27  
3.1                     0.998699         173.971        0.0324101         82.9241        0.0324098          82.924         0.999233         176.209  
3.15                    0.998669         173.874        0.0329434         82.8955        0.0329432         82.8954         0.999211         176.149  
3.2                     0.998639         173.778        0.0334772          82.866        0.0334769         82.8659          0.99919         176.088  
3.25                    0.998608         173.682        0.0340113         82.8356         0.034011         82.8355         0.999168         176.027  
3.3                     0.998577         173.586        0.0345458         82.8042        0.0345456         82.8041         0.999146         175.966  
3.35                    0.998546         173.489        0.0350807         82.7719        0.0350804         82.7718         0.999123         175.906  
3.4                     0.998515         173.393        0.0356159         82.7388        0.0356157         82.7387         0.999101         175.845  
3.45                    0.998484         173.297        0.0361516         82.7047        0.0361513         82.7046         0.999078         175.784  
3.5                     0.998452         173.201        0.0366875         82.6698        0.0366873         82.6697         0.999055         175.723  
3.55                    0.998421         173.105        0.0372239         82.6341        0.0372236          82.634         0.999031         175.663  
3.6                     0.998389         173.009        0.0377605         82.5975        0.0377603         82.5974         0.999008         175.602  
3.65                    0.998358         172.913        0.0382976           82.56        0.0382973           82.56         0.998984         175.541  
3.7                     0.998326         172.817        0.0388349         82.5218        0.0388347         82.5217         0.998959         175.481  
3.75                    0.998294         172.721        0.0393726         82.4827        0.0393724         82.4827         0.998935          175.42  
3.8                     0.998262         172.625        0.0399106         82.4429        0.0399104         82.4428          0.99891         175.359  
3.85                    0.998229         172.529         0.040449         82.4022        0.0404488         82.4022         0.998885         175.299  
3.9                     0.998197         172.433        0.0409877         82.3608        0.0409874         82.3607          0.99886         175.238  
3.95                    0.998165         172.337        0.0415267         82.3186        0.0415264         82.3186         0.998835         175.177  
4                       0.998132         172.241         0.042066         82.2757        0.0420657         82.2756         0.998809         175.117  
4.05                      0.9981         172.145        0.0426056          82.232        0.0426053          82.232         0.998783         175.056  
4.1                     0.998067         172.049        0.0431455         82.1876        0.0431452         82.1875         0.998757         174.996  
4.15                    0.998034         171.954        0.0436857         82.1425        0.0436854         82.1424         0.998731         174.935  
4.2                     0.998001         171.858        0.0442262         82.0966        0.0442259         82.0966         0.998704         174.874  
4.25                    0.997968         171.762        0.0447669         82.0501        0.0447667         82.0501         0.998678         174.814  
4.3                     0.997935         171.666         0.045308         82.0029        0.0453078         82.0028          0.99865         174.753  
4.35                    0.997902          171.57        0.0458493          81.955        0.0458491         81.9549         0.998623         174.693  
4.4                     0.997869         171.475        0.0463909         81.9064        0.0463907         81.9064         0.998596         174.632  
4.45                    0.997835         171.379        0.0469327         81.8571        0.0469325         81.8571         0.998568         174.571  
4.5                     0.997802         171.283        0.0474748         81.8073        0.0474746         81.8072          0.99854         174.511  
4.55                    0.997769         171.187        0.0480171         81.7567        0.0480169         81.7567         0.998511          174.45  
4.6                     0.997735         171.092        0.0485597         81.7056        0.0485595         81.7056         0.998483          174.39  
4.65                    0.997701         170.996        0.0491026         81.6538        0.0491024         81.6538         0.998454         174.329  
4.7                     0.997668           170.9        0.0496456         81.6014        0.0496454         81.6014         0.998425         174.269  
4.75                    0.997634         170.805        0.0501889         81.5484        0.0501887         81.5484         0.998396         174.208  
4.8                       0.9976         170.709        0.0507324         81.4949        0.0507322         81.4949         0.998366         174.148  
4.85                    0.997566         170.614        0.0512761         81.4407        0.0512759         81.4407         0.998337         174.087  
4.9                     0.997532         170.518          0.05182          81.386        0.0518199          81.386         0.998307         174.027  
4.95                    0.997498         170.422        0.0523642         81.3307         0.052364         81.3307         0.998276         173.966  
5                       0.997464         170.327        0.0529085         81.2748        0.0529083         81.2748         0.998246         173.906  
5.05                    0.997429         170.231         0.053453         81.2184        0.0534528         81.2184         0.998215         173.845  
5.1                     0.997395         170.136        0.0539977         81.1614        0.0539975         81.1614         0.998184         173.785  
5.15                    0.997361          170.04        0.0545426         81.1039        0.0545424         81.1039         0.998153         173.725  
5.2                     0.997326         169.945        0.0550877         81.0459        0.0550875         81.0459         0.998121         173.664  
5.25                    0.997291         169.849        0.0556329         80.9874        0.0556327         80.9874          0.99809         173.604  
5.3                     0.997257         169.753        0.0561783         80.9283        0.0561781         80.9283         0.998058         173.543  
5.35                    0.997222         169.658        0.0567238         80.8688        0.0567237         80.8688         0.998026         173.483  
5.4                     0.997187         169.562        0.0572695         80.8087        0.0572694         80.8087         0.997993         173.422  
5.45                    0.997152         169.467        0.0578154         80.7482        0.0578152         80.7482          0.99796         173.362  
5.5                     0.997117         169.371        0.0583614         80.6872        0.0583612         80.6872         0.997927         173.302  
5.55                    0.997082         169.276        0.0589075         80.6257        0.0589073         80.6257         0.997894         173.241  
5.6                     0.997046          169.18        0.0594537         80.5638        0.0594536         80.5638         0.997861         173.181  
5.65                    0.997011         169.085        0.0600001         80.5014             0.06         80.5014         0.997827          173.12  
5.7                     0.996975         168.989        0.0605466         80.4385        0.0605465         80.4385         0.997793          173.06  
5.75                    0.996939         168.894        0.0610932         80.3752        0.0610931         80.3752         0.997759             173  
5.8                     0.996903         168.798        0.0616399         80.3114        0.0616398         80.3114         0.997724         172.939  
5.85                    0.996867         168.703        0.0621867         80.2473        0.0621866         80.2473         0.997689         172.879  
5.9                     0.996831         168.608        0.0627336         80.1826        0.0627335         80.1827         0.997654         172.819  
5.95                    0.996795         168.512        0.0632806         80.1176        0.0632805         80.1176         0.997619         172.758  
6                       0.996758         168.417        0.0638277         80.0522        0.0638276         80.0522         0.997584         172.698  
6.05                    0.996722         168.321        0.0643748         79.9863        0.0643747         79.9863         0.997548         172.638  
6.1                     0.996685         168.226        0.0649221         79.9201        0.0649219         79.9201         0.997512         172.577  
6.15                    0.996648          168.13        0.0654694         79.8534        0.0654692         79.8535         0.997475         172.517  
6.2                     0.996611         168.035        0.0660167         79.7864        0.0660166         79.7864         0.997438         172.456  
6.25                    0.996573         167.939        0.0665641          79.719         0.066564          79.719         0.997402         172.396  
6.3                     0.996536         167.844        0.0671116         79.6512        0.0671115         79.6512         0.997364         172.336  
6.35                    0.996498         167.748        0.0676591          79.583         0.067659          79.583         0.997327         172.276  
6.4                      0.99646         167.653        0.0682066         79.5145        0.0682065         79.5145         0.997289         172.215  
6.45                    0.996422         167.557        0.0687542         79.4456        0.0687541         79.4456         0.997251         172.155  
6.5                     0.996383         167.462        0.0693018         79.3764        0.0693017         79.3764         0.997212         172.095  
6.55                    0.996345         167.366        0.0698495         79.3068        0.0698493         79.3068         0.997174         172.034  
6.6                     0.996306         167.271        0.0703971         79.2368         0.070397         79.2368         0.997135         171.974  
6.65                    0.996266         167.175        0.0709448         79.1665        0.0709447         79.1665         0.997095         171.914  
6.7                     0.996227          167.08        0.0714924         79.0959        0.0714923         79.0959         0.997056         171.853  
6.75                    0.996187         166.984        0.0720401          79.025          0.07204          79.025         0.997016         171.793  
6.8                     0.996147         166.889        0.0725878         78.9537        0.0725877         78.9537         0.996976         171.733  
6.85                    0.996107         166.793        0.0731354         78.8821        0.0731353         78.8821         0.996935         171.673  
6.9                     0.996066         166.697         0.073683         78.8102        0.0736829         78.8102         0.996895         171.612  
6.95                    0.996025         166.602        0.0742307          78.738        0.0742306          78.738         0.996853         171.552  
7                       0.995984         166.506        0.0747783         78.6654        0.0747782         78.6655         0.996812         171.492  
7.05                    0.995942         166.411        0.0753258         78.5926        0.0753257         78.5926          0.99677         171.431  
7.1                       0.9959         166.315        0.0758733         78.5195        0.0758732         78.5195         0.996728         171.371  
7.15                    0.995858          166.22        0.0764208         78.4461        0.0764207         78.4461         0.996686         171.311  
7.2                     0.995815         166.124        0.0769683         78.3724        0.0769682         78.3724         0.996643         171.251  
7.25                    0.995772         166.028        0.0775156         78.2984        0.0775156         78.2984           0.9966          171.19  
7.3                     0.995728         165.933         0.078063         78.2241        0.0780629         78.2241         0.996556          171.13  
7.35                    0.995684         165.837        0.0786102         78.1496        0.0786102         78.1496         0.996513          171.07  
7.4                      0.99564         165.742        0.0791574         78.0748        0.0791574         78.0748         0.996469          171.01  
7.45                    0.995595         165.646        0.0797046         77.9997        0.0797045         77.9997         0.996424         170.949  
7.5                      0.99555          165.55        0.0802516         77.9244        0.0802515         77.9244         0.996379         170.889  
7.55                    0.995504         165.455        0.0807986         77.8488        0.0807985         77.8488         0.996334         170.829  
7.6                     0.995458         165.359        0.0813454         77.7729        0.0813454         77.7729         0.996289         170.769  
7.65                    0.995411         165.263        0.0818922         77.6968        0.0818922         77.6968         0.996243         170.709  
7.7                     0.995364         165.168        0.0824389         77.6205        0.0824388         77.6205         0.996197         170.648  
7.75                    0.995316         165.072        0.0829855         77.5439        0.0829854         77.5439          0.99615         170.588  
7.8                     0.995268         164.976         0.083532         77.4671        0.0835319         77.4671         0.996103         170.528  
7.85                    0.995219         164.881        0.0840783           77.39        0.0840783           77.39         0.996056         170.468  
7.9                      0.99517         164.785        0.0846246         77.3127        0.0846245         77.3127         0.996008         170.407  
7.95                     0.99512         164.689        0.0851707         77.2352        0.0851706         77.2352          0.99596         170.347  
8                        0.99507         164.594        0.0857167         77.1574        0.0857166         77.1574         0.995912         170.287  
8.05                    0.995019         164.498        0.0862625         77.0794        0.0862625         77.0795         0.995863         170.227  
8.1                     0.994968         164.402        0.0868083         77.0013        0.0868082         77.0013         0.995813         170.167  
8.15                    0.994916         164.306        0.0873538         76.9229        0.0873538         76.9229         0.995764         170.107  
8.2                     0.994863         164.211        0.0878993         76.8442        0.0878992         76.8443         0.995714         170.046  
8.25                     0.99481         164.115        0.0884446         76.7654        0.0884445         76.7654         0.995664         169.986  
8.3                     0.994756         164.019        0.0889897         76.6864        0.0889896         76.6864         0.995613         169.926  
8.35                    0.994701         163.923        0.0895346         76.6072        0.0895346         76.6072         0.995562         169.866  
8.4                     0.994646         163.827        0.0900794         76.5278        0.0900794         76.5278          0.99551         169.806  
8.45                     0.99459         163.732         0.090624         76.4482         0.090624         76.4482         0.995458         169.746  
8.5                     0.994533         163.636        0.0911685         76.3683        0.0911684         76.3684         0.995406         169.685  
8.55                    0.994476          163.54        0.0917128         76.2884        0.0917127         76.2884         0.995353         169.625  
8.6                     0.994418         163.444        0.0922568         76.2082        0.0922568         76.2082           0.9953         169.565  
8.65                    0.994359         163.348        0.0928007         76.1278        0.0928007         76.1278         0.995246         169.505  
8.7                       0.9943         163.253        0.0933444         76.0473        0.0933444         76.0473         0.995192         169.445  
8.75                     0.99424         163.157        0.0938879         75.9666        0.0938879         75.9666         0.995138         169.385  
8.8                     0.994179         163.061        0.0944312         75.8857        0.0944312         75.8857         0.995083         169.325  
8.85                    0.994117         162.965        0.0949743         75.8046        0.0949743         75.8046         0.995027         169.265  
8.9                     0.994055         162.869        0.0955172         75.7234        0.0955171         75.7234         0.994972         169.204  
8.95                    0.993992         162.773        0.0960598          75.642        0.0960598          75.642         0.994915         169.144  
9                       0.993928         162.677        0.0966022         75.5605        0.0966022         75.5605         0.994859         169.084  
9.05                    0.993863         162.582        0.0971445         75.4788        0.0971444         75.4788         0.994802         169.024  
9.1                     0.993797         162.486        0.0976864         75.3969        0.0976864         75.3969         0.994744         168.964  
9.15                    0.993731          162.39        0.0982282         75.3149        0.0982281         75.3149         0.994686         168.904  
9.2                     0.993664         162.294        0.0987697         75.2327        0.0987696         75.2327         0.994628         168.844  
9.25                    0.993596         162.198        0.0993109         75.1504        0.0993109         75.1504         0.994569         168.784  
9.3                     0.993527         162.102        0.0998519          75.068        0.0998519          75.068          0.99451         168.724  
9.35                    0.993457         162.006         0.100393         74.9854         0.100393         74.9854          0.99445         168.664  
9.4                     0.993387         161.911         0.100933         74.9026         0.100933         74.9026          0.99439         168.604  
9.45                    0.993315         161.815         0.101473         74.8198         0.101473         74.8198          0.99433         168.544  
9.5                     0.993243         161.719         0.102013         74.7368         0.102013         74.7368         0.994269         168.484  
9.55                     0.99317         161.623         0.102553         74.6536         0.102553         74.6536         0.994207         168.424  
9.6                     0.993095         161.527         0.103093         74.5703         0.103093         74.5703         0.994145         168.364  
9.65                     0.99302         161.431         0.103632         74.4869         0.103632          74.487         0.994083         168.304  
9.7                     0.992944         161.335         0.104171         74.4034         0.104171         74.4034          0.99402         168.244  