! Touchstone file exported from HFSS 2022.2.0
!        File:           /home/arthur/Ansoft/PersonalLib/TOMAS_plasma_box.aedt
!        Generated:      1:41:48 PM  Jan 16, 2024
!        Design:         HFSSDesign9
!        Project:        TOMAS_plasma_box
!        Setup:          Setup1
!        Solution:       Sweep
!
! Variables:
!        offset = 1.25cm
!        r_diel = 210mm
!
# GHz S MA R 50.000000
! Terminal data exported
! Port[1] = 1
! Port[2] = 2
0.01                           0.992648534577311 168.953739648316 0.11186383705725 74.9724595405006 0.111863815168441 74.972474377584  0.990245140909499 162.830822277102 
! Gamma         0                0.209584502215337 0                0.209584502201685 
! Port Impedance         50               0                50               0                
0.0101125                      0.992487610777916 168.830843172194 0.113086469973735 74.8065087890814 0.113086447500231 74.8065238811298 0.990033885691208 162.640062503778 
! Gamma         0                0.211942327864722 0                0.21194232785126 
! Port Impedance         50               0                50               0                
0.010225                       0.992325096383506 168.707990314806 0.114307977538195 74.6406546399817 0.114307954469081 74.6406699870051 0.989820643460237 162.44937754636  
! Gamma         0                0.214300153514114 0                0.214300153500836 
! Port Impedance         50               0                50               0                
0.0103375                      0.992160997574696 168.585181435138 0.115528351036687 74.4748976433121 0.115528327360951 74.4749132453529 0.989605424740763 162.258767966634 
! Gamma         0                0.21665797916351 0                0.216657979150414 
! Port Impedance         50               0                50               0                
0.01045                        0.991995320561302 168.462416888848 0.116747581848448 74.3092383387096 0.116747557554986 74.3092541958417 0.98938824008024 162.068234319838 
! Gamma         0                0.219015804812913 0                0.219015804799995 
! Port Impedance         50               0                50               0                
0.0105625                      0.991828071581445 168.339697028263 0.117965661445552 74.1436772553768 0.117965636523167 74.1436933677042 0.989169100047572 161.87777715469  
! Gamma         0                0.221373630462322 0                0.221373630449578 
! Port Impedance         50               0                50               0                
0.010675                       0.991659256900666 168.217022202385 0.119182581392538 73.9782149121257 0.119182555829943 73.9782312797821 0.988948015231313 161.68739701342  
! Gamma         0                0.223731456111735 0                0.223731456099163 
! Port Impedance         50               0                50               0                
0.0107875                      0.991488882811048 168.094392756892 0.120398333346028 73.8128518174278 0.120398307131843 73.812868440575  0.988724996237892 161.497094431805 
! Gamma         0                0.226089281761154 0                0.22608928174875 
! Port Impedance         50               0                50               0                
0.0109                         0.991316955630343 167.971809034142 0.121612909054321 73.6475884694685 0.121612882177079 73.6476053482962 0.988500053689864 161.306869939203 
! Gamma         0                0.228447107410577 0                0.228447107398338 
! Port Impedance         50               0                50               0                
0.0110125                      0.991143481701111 167.849271373179 0.122826300356974 73.4824253562072 0.122826272805119 73.4824424909315 0.988273198224197 161.116724058588 
! Gamma         0                0.230804933060006 0                0.230804933047928 
! Port Impedance         50               0                50               0                
0.011125                       0.990968467389859 167.726780109738 0.124038499184371 73.3173629554403 0.124038470946258 73.3173803463035 0.988044440490584 160.926657306586 
! Gamma         0                0.233162758709439 0                0.23316275869752 
! Port Impedance         50               0                50               0                
0.0112375                      0.9907919190862  167.604335576249 0.125249497557268 73.1524017348705 0.125249468621168 73.1524193821398 0.987813791149778 160.736670193517 
! Gamma         0                0.235520584358877 0                0.235520584347114 
! Port Impedance         50               0                50               0                
0.01135                        0.990613843202003 167.481938101843 0.126459287586329 72.9875421521782 0.126459257940429 72.987560056145  0.987581260871967 160.546763223429 
! Gamma         0                0.23787841000832 0                0.237878409996709 
! Port Impedance         50               0                50               0                
0.0114625                      0.990434246170568 167.359588012365 0.127667861471652 72.8227846550974 0.127667831104051 72.8228028160772 0.987346860335173 160.356936894147 
! Gamma         0                0.240236235657766 0                0.240236235646306 
! Port Impedance         50               0                50               0                
0.011575                       0.990253134445799 167.237285630373 0.128875211502269 72.6581296814958 0.128875180400988 72.6581480998268 0.987110600223677 160.167191697304 
! Gamma         0                0.242594061307217 0                0.242594061295904 
! Port Impedance         50               0                50               0                
0.0116875                      0.990070514501388 167.115031275154 0.130081330055651 72.4935776594566 0.130081298208624 72.4935963354994 0.986872491226483 159.977528118393 
! Gamma         0                0.244951886956672 0                0.244951886945504 
! Port Impedance         50               0                50               0                
0.0118                         0.989886392830011 166.992825262726 0.131286209597181 72.3291290073649 0.131286176992265 72.3291479415017 0.986632544035802 159.787946636805 
! Gamma         0                0.247309712606131 0                0.247309712595106 
! Port Impedance         50               0                50               0                
0.0119125                      0.989700775942527 166.870667905852 0.132489842679634 72.1647841339962 0.132489809304605 72.1648033266303 0.986390769345572 159.598447725877 
! Gamma         0                0.249667538255594 0                0.249667538244709 
! Port Impedance         50               0                50               0                
0.012025                       0.98951367036719 166.748559514049 0.133692221942634 72.0005434386076 0.133692187785189 72.0005628901629 0.986147177850009 159.409031852935 
! Gamma         0                0.252025363905061 0                0.252025363894313 
! Port Impedance         50               0                50               0                
0.0121375                      0.989325082648867 166.626500393599 0.134893340112108 71.8364073110318 0.134893305159867 71.836427021952  0.985901780242184 159.219699479343 
! Gamma         0                0.254383189554531 0                0.254383189543918 
! Port Impedance         50               0                50               0                
0.01225                        0.989135019348271 166.504490847555 0.136093189999721 71.6723761317734 0.136093154240229 71.6723961025217 0.98565458721263 159.030451060546 
! Gamma         0                0.256741015204005 0                0.256741015193525 
! Port Impedance         50               0                50               0                
0.0123625                      0.988943487041195 166.38253117576  0.137291764502316 71.5084502721074 0.13729172792304 71.5084705031658 0.985405609447986 158.841287046125 
! Gamma         0                0.259098840853482 0                0.259098840843133 
! Port Impedance         50               0                50               0                
0.012475                       0.988750492317764 166.260621674852 0.138489056601332 71.3446300941792 0.138489019189668 71.3446505860482 0.985154857629662 158.652207879836 
! Gamma         0                0.261456666502963 0                0.261456666492742 
! Port Impedance         50               0                50               0                
0.0125875                      0.988556041781685 166.138762638281 0.139685059362222 71.1809159511075 0.13968502110549 71.1809367043053 0.984902342432541 158.463213999669 
! Gamma         0                0.263814492152447 0                0.263814492142353 
! Port Impedance         50               0                50               0                
0.0127                         0.988360142049523 166.016954356321 0.14087976593386 71.0173081870878 0.14087972681931 71.01732920215   0.984648074523708 158.274305837891 
! Gamma         0                0.266172317801934 0                0.266172317791965 
! Port Impedance         50               0                50               0                
0.0128125                      0.988162799749968 165.895197116079 0.142073169547943 70.8538071374984 0.142073129562754 70.8538284149777 0.98439206456121 158.085483821099 
! Gamma         0                0.268530143451424 0                0.268530143441578 
! Port Impedance         50               0                50               0                
0.012925                       0.987964021523128 165.773491201515 0.143265263518387 70.6904131290072 0.143265222649668 70.6904346694727 0.984134323192843 157.896748370273 
! Gamma         0                0.270887969100918 0                0.270887969091192 
! Port Impedance         50               0                50               0                
0.0130375                      0.987763814019818 165.651836893452 0.144456041240714 70.5271264796802 0.144455999475507 70.527148283717  0.983874861054974 157.708099900824 
! Gamma         0                0.273245794750414 0                0.273245794740807 
! Port Impedance         50               0                50               0                
0.01315                        0.987562183900871 165.53023446959  0.145645496191439 70.3639474990908 0.145645453516717 70.3639695672998 0.98361368877139 157.519538822647 
! Gamma         0                0.275603620399914 0                0.275603620390424 
! Port Impedance         50               0                50               0                
0.0132625                      0.987359137836451 165.408684204524 0.146833621927447 70.2008764884309 0.146833578330118 70.2008988214282 0.983350816952173 157.331065540177 
! Gamma         0                0.277961446049416 0                0.277961446040041 
! Port Impedance         50               0                50               0                
0.013375                       0.987154682505378 165.287186369756 0.148020412085367 70.0379137406219 0.148020367552273 70.0379363390386 0.983086256192613 157.142680452435 
! Gamma         0                0.280319271698921 0                0.28031927168966 
! Port Impedance         50               0                50               0                
0.0134875                      0.986948824594461 165.165741233712 0.149205860380945 69.8750595404276 0.149205814898866 69.8750824049089 0.982820017072138 156.954383953088 
! Gamma         0                0.282677097348429 0                0.282677097339279 
! Port Impedance         50               0                50               0                
0.0136                         0.986741570797848 165.04434906176  0.150389960608413 69.7123141645666 0.150389914164063 69.7123372957722 0.982552110153286 156.766176430499 
! Gamma         0                0.285034922997939 0                0.285034922988899 
! Port Impedance         50               0                50               0                
0.0137125                      0.986532927816375 164.923010116219 0.151572706639848 69.549677881827  0.151572659219883 69.5497012804301 0.982282545980695 156.57805826778  
! Gamma         0                0.287392748647452 0                0.287392748638521 
! Port Impedance         50               0                50               0                
0.013825                       0.986322902356935 164.801724656385 0.152754092424541 69.3871509531798 0.152754044015554 69.3871746198672 0.982011335080126 156.390029842847 
! Gamma         0                0.289750574296967 0                0.289750574288143 
! Port Impedance         50               0                50               0                
0.0139375                      0.986111501131852 164.68049293854  0.153934111988353 69.224733631894  0.153934062576878 69.2247575673654 0.981738487957518 156.202091528478 
! Gamma         0                0.292108399946486 0                0.292108399937766 
! Port Impedance         50               0                50               0                
0.01405                        0.985898730858266 164.559315215974 0.155112759433073 69.0624261636514 0.155112709005587 69.0624503686194 0.981464015098062 156.014243692358 
! Gamma         0                0.294466225596006 0                0.294466225587391 
! Port Impedance         50               0                50               0                
0.0141625                      0.985684598257525 164.438191738999 0.156290028935778 68.9002287866621 0.156289977478701 68.9002532618514 0.98118792696531 155.826486697144 
! Gamma         0                0.296824051245529 0                0.296824051237016 
! Port Impedance         50               0                50               0                
0.014275                       0.985469110054595 164.31712275497  0.15746591474819 68.7381417317795 0.157465862247884 68.7381664779272 0.980910234000307 155.638820900512 
! Gamma         0                0.299181876895054 0                0.299181876886641 
! Port Impedance         50               0                50               0                
0.0143875                      0.985252272977473 164.196108508298 0.158640411196026 68.5761652226161 0.158640357638802 68.5761902404708 0.980630946620756 155.451246655216 
! Gamma         0                0.301539702544582 0                0.301539702536268 
! Port Impedance         50               0                50               0                
0.0145                         0.985034093756609 164.075149240475 0.159813512678363 68.4142994756586 0.159813458050475 68.4143247659805 0.980350075220201 155.26376430914  
! Gamma         0                0.303897528194111 0                0.303897528185896 
! Port Impedance         50               0                50               0                
0.0146125                      0.984814579124346 163.954245190085 0.160985213666986 68.2525447003834 0.160985157954636 68.252570263944  0.980067630167242 155.076374205354 
! Gamma         0                0.306255353843643 0                0.306255353835524 
! Port Impedance         50               0                50               0                
0.014725                       0.98459373581436 163.833396592826 0.162155508705749 68.090901099372  0.162155451895088 68.0909269369534 0.979783621804779 154.889076682168 
! Gamma         0                0.308613179493177 0                0.308613179485154 
! Port Impedance         50               0                50               0                
0.0148375                      0.984371570561117 163.71260368153  0.163324392409932 67.9293688684255 0.163324334487062 67.9293949808205 0.979498060449275 154.701872073188 
! Gamma         0                0.310971005142713 0                0.310971005134784 
! Port Impedance         50               0                50               0                
0.01495                        0.98414809009934 163.591866686181 0.1644918594656  67.7679481966794 0.164491800416571 67.7679745846912 0.979210956390044 154.514760707367 
! Gamma         0                0.313328830792251 0                0.313328830784415 
! Port Impedance         50               0                50               0                
0.0150625                      0.983923301163478 163.47118583393  0.165657904628962 67.6066392667179 0.165657844439779 67.6066659311597 0.978922319888575 154.327742909065 
! Gamma         0                0.315686656441791 0                0.315686656434046 
! Port Impedance         50               0                50               0                
0.015175                       0.983697210487197 163.350561349122 0.166822522725738 67.4454422546878 0.166822461382357 67.4454691963826 0.978632161177869 154.140818998097 
! Gamma         0                0.318044482091333 0                0.318044482083678 
! Port Impedance         50               0                50               0                
0.0152875                      0.983469824802867 163.229993453307 0.167985708650517 67.2843573304116 0.167985646138849 67.2843845501918 0.978340490461805 153.953989289794 
! Gamma         0                0.320402307740877 0                0.320402307733311 
! Port Impedance         50               0                50               0                
0.0154                         0.98324115084107 163.109482365267 0.16914745736613 67.1233846575002 0.169147393672041 67.1234121562077 0.978047317914526 153.767254095048 
! Gamma         0                0.322760133390423 0                0.322760133382945 
! Port Impedance         50               0                50               0                
0.0155125                      0.983011195330114 162.989028301029 0.170307763903017 66.9625243934655 0.17030769901233 66.9625521719511 0.977752653679858 153.580613720376 
! Gamma         0                0.325117959039971 0                0.325117959032579 
! Port Impedance         50               0                50               0                
0.015625                       0.982779964995551 162.868631473892 0.171466623358601 66.8017766898315 0.171466557257095 66.8018047489547 0.977456507870743 153.394068467965 
! Gamma         0                0.32747578468952 0                0.327475784682214 
! Port Impedance         50               0                50               0                
0.0157375                      0.982547466559717 162.748292094439 0.172624030896662 66.6411416922451 0.172623963570075 66.641170032874  0.977158890568699 153.20761863573  
! Gamma         0                0.329833610339072 0                0.32983361033185 
! Port Impedance         50               0                50               0                
0.01585                        0.982313706741267 162.628010370562 0.173779981746719 66.4806195405863 0.17377991318075 66.4806481635973 0.976859811823298 153.021264517364 
! Gamma         0                0.332191435988625 0                0.332191435981486 
! Port Impedance         50               0                50               0                
0.0159625                      0.982078692254728 162.507786507483 0.174934471203412 66.3202103690773 0.174934401383719 66.3202392753548 0.976559281651675 152.835006402395 
! Gamma         0                0.33454926163818 0                0.334549261631124 
! Port Impedance         50               0                50               0                
0.016075                       0.981842429810061 162.387620707769 0.176087494625889 66.1599143063908 0.176087423538092 66.1599434968272 0.976257310038047 152.648844576233 
! Gamma         0                0.336907087287736 0                0.336907087280762 
! Port Impedance         50               0                50               0                
0.0161875                      0.981604926112232 162.267513171356 0.177239047437197 65.9997314757577 0.177238975066879 65.9997609512529 0.975953906933265 152.462779320227 
! Gamma         0                0.339264912937294 0                0.3392649129304  
! Port Impedance         50               0                50               0                
0.0163                         0.981366187860787 162.147464095571 0.178389125123678 65.8396619950733 0.178389051456385 65.8396917565347 0.975649082254374 152.276810911711 
! Gamma         0                0.341622738586854 0                0.341622738580039 
! Port Impedance         50               0                50               0                
0.0164125                      0.981126221749444 162.027473675147 0.179537723234368 65.6797059770034 0.179537648255613 65.6797360253453 0.975342845884206 152.090939624062 
! Gamma         0                0.343980564236416 0                0.343980564229678 
! Port Impedance         50               0                50               0                
0.016525                       0.980885034465685 161.907542102247 0.180684837380404 65.5198635290883 0.180684761075663 65.5198938652323 0.975035207670984 151.905165726745 
! Gamma         0                0.346338389885979 0                0.346338389879319 
! Port Impedance         50               0                50               0                
0.0166375                      0.980642632690365 161.787669566485 0.181830463234428 65.3601347538466 0.181830385589146 65.3601653787209 0.97472617742795 151.719489485368 
! Gamma         0                0.348696215535543 0                0.348696215528959 
! Port Impedance         50               0                50               0                
0.01675                        0.98039902309733 161.667856254942 0.182974596530008 65.2005197488777 0.182974517529596 65.2005506634171 0.97441576493301 151.53391116173  
! Gamma         0                0.351054041185109 0                0.351054041178601 
! Port Impedance         50               0                50               0                
0.0168625                      0.980154212353035 161.548102352193 0.184117233061051 65.0410186069633 0.184117152690891 65.0410498121089 0.974103979928397 151.34843101387  
! Gamma         0                0.353411866834677 0                0.353411866828243 
! Port Impedance         50               0                50               0                
0.016975                       0.979908207116175 161.428408040322 0.185258368681234 64.8816314161673 0.185258286926676 64.8816629128665 0.973790832120358 151.163049296117 
! Gamma         0                0.355769692484246 0                0.355769692477885 
! Port Impedance         50               0                50               0                
0.0170875                      0.979661014037333 161.308773498944 0.186397999303425 64.7223582599354 0.186397916149791 64.7223900491414 0.973476331178849 150.97776625914  
! Gamma         0                0.358127518133816 0                0.358127518127528 
! Port Impedance         50               0                50               0                
0.0172                         0.979412639758619 161.189198905227 0.187536120899129 64.5631992171924 0.187536036331713 64.5632312998644 0.973160486737257 150.792582149996 
! Gamma         0                0.360485343783388 0                0.360485343777172 
! Port Impedance         50               0                50               0                
0.0173125                      0.979163090913337 161.069684433911 0.188672729497922 64.4041543624397 0.188672643501989 64.4041867395423 0.972843308392133 150.607497212175 
! Gamma         0                0.362843169432962 0                0.362843169426816 
! Port Impedance         50               0                50               0                
0.017425                       0.978912374125644 160.950230257328 0.189807821186897 64.2452237658503 0.189807733747688 64.2452564383534 0.972524805702945 150.422511685651 
! Gamma         0                0.365200995082536 0                0.365200995076461 
! Port Impedance         50               0                50               0                
0.0175375                      0.978660496010223 160.830836545425 0.19094139211012 64.0864074933631 0.19094130321285 64.0864404622422 0.972204988191843 150.237625806928 
! Gamma         0                0.367558820732112 0                0.367558820726106 
! Port Impedance         50               0                50               0                
0.01765                        0.978407463171972 160.711503465779 0.192073438468089 63.9277056067765 0.192073348097948 63.9277388730118 0.971883865343448 150.052839809084 
! Gamma         0                0.36991664638169 0                0.369916646375752 
! Port Impedance         50               0                50               0                
0.0177625                      0.978153282205684 160.592231183624 0.193203956517191 63.7691181638393 0.193203864659347 63.7691517284162 0.971561446604643 149.868153921821 
! Gamma         0                0.372274472031268 0                0.372274472025398 
! Port Impedance         50               0                50               0                
0.017875                       0.97789795969575 160.473019861866 0.194332942569182 63.6106452183423 0.194332849208778 63.6106790822506 0.971237741384396 149.683568371507 
! Gamma         0                0.374632297680848 0                0.374632297675045 
! Port Impedance         50               0                50               0                
0.0179875                      0.977641502215865 160.353869661107 0.195460392990653 63.4522868202064 0.195460298112813 63.4523209844407 0.970912759053583 149.49908338122  
! Gamma         0                0.37699012333043 0                0.376990123324692 
! Port Impedance         50               0                50               0                
0.0181                         0.977383916328736 160.234780739661 0.196586304202521 63.2940430155714 0.196586207792347 63.2940774811304 0.970586508944828 149.314699170799 
! Gamma         0                0.379347948980012 0                0.37934794897434 
! Port Impedance         50               0                50               0                
0.0182125                      0.977125208585804 160.115753253578 0.197710672679512 63.1359138468821 0.197710574722087 63.1359486147689 0.97025900035237 149.130415956877 
! Gamma         0                0.381705774629596 0                0.381705774623988 
! Port Impedance         50               0                50               0                
0.018325                       0.976865385526973 159.996787356662 0.198833494949656 62.9778993529738 0.198833395430043 62.9779344241955 0.969930242531922 148.946233952935 
! Gamma         0                0.384063600279181 0                0.384063600273637 
! Port Impedance         50               0                50               0                
0.0184375                      0.976604453680343 159.877883200491 0.199954767593789 62.8199995691561 0.199954666497035 62.8200349447238 0.96960024470056 148.762153369336 
! Gamma         0                0.386421425928767 0                0.386421425923285 
! Port Impedance         50               0                50               0                
0.01855                        0.976342419561953 159.759040934437 0.201074487245062 62.6622145272957 0.201074384556194 62.6622502082239 0.969269016036615 148.578174413373 
! Gamma         0                0.388779251578354 0                0.388779251572935 
! Port Impedance         50               0                50               0                
0.0186625                      0.976079289675528 159.640260705688 0.202192650588448 62.5045442558975 0.202192546292479 62.5045802432046 0.968936565679586 148.394297289307 
! Gamma         0                0.391137077227942 0                0.391137077222585 
! Port Impedance         50               0                50               0                
0.018775                       0.975815070512236 159.521542659263 0.203309254360267 62.3469887801845 0.203309148442195 62.3470250748923 0.968602902730054 148.21052219841  
! Gamma         0                0.393494902877532 0                0.393494902872235 
! Port Impedance         50               0                50               0                
0.0188875                      0.97554976855045 159.402886938035 0.204424295347712 62.1895481221766 0.204424187792518 62.1895847253101 0.968268036249618 148.026849339004 
! Gamma         0                0.395852728527123 0                0.395852728521886 
! Port Impedance         50               0                50               0                
0.019                          0.97528339025552 159.284293682749 0.205537770388377 62.0322223007677 0.205537661181029 62.0322592133551 0.967931975260834 147.843278906503 
! Gamma         0                0.398210554176715 0                0.398210554171538 
! Port Impedance         50               0                50               0                
0.0191125                      0.975015942079544 159.165763032045 0.206649676369796 61.8750113318016 0.206649565495251 61.8750485548739 0.967594728747169 147.659811093447 
! Gamma         0                0.400568379826308 0                0.40056837982119 
! Port Impedance         50               0                50               0                
0.019225                       0.974747430461153 159.047295122469 0.207760010228991 61.7179152281463 0.207759897672191 61.7179527627376 0.967256305652968 147.476446089547 
! Gamma         0                0.402926205475902 0                0.402926205470842 
! Port Impedance         50               0                50               0                
0.0193375                      0.9744778618253  158.928890088503 0.208868768952021 61.5609339997676 0.208868654697899 61.5609718469147 0.966916714883421 147.29318408172  
! Gamma         0                0.405284031125497 0                0.405284031120494 